<LesHouchesEvents version="3.0">
<event>
12      1 +3.3740700e+00 1.82728000e+02 7.54677100e-03 1.16589000e-01
       21 -1    0    0  503  502 +0.0000000000e+00 +0.0000000000e+00 +3.1438148872e+02 3.1438148872e+02 0.0000000000e+00 0.0000e+00 1.0000e+00
       21 -1    0    0  501  503 -0.0000000000e+00 -0.0000000000e+00 -1.7853468045e+02 1.7853468045e+02 0.0000000000e+00 0.0000e+00 1.0000e+00
        6  2    1    2  501    0 +3.2942743771e+01 -3.4743213444e+01 -9.0448614311e+01 2.0388834802e+02 1.7634395760e+02 0.0000e+00 0.0000e+00
       24  2    3    3    0    0 +5.8679158851e+01 +3.7322281522e+01 -4.6668240305e+01 1.1560126078e+02 7.9683941038e+01 0.0000e+00 0.0000e+00
       -6  2    1    2    0  502 -3.2942743771e+01 +3.4743213444e+01 +2.2629542257e+02 2.8902782115e+02 1.7330651422e+02 0.0000e+00 0.0000e+00
      -24  2    5    5    0    0 -7.3474952392e+01 +4.8722798118e+01 +1.0229772649e+02 1.5774260737e+02 8.1519480179e+01 0.0000e+00 0.0000e+00
       12  1    4    4    0    0 +1.2697593790e+01 -8.3550895128e+00 +1.8328956059e+01 2.3811489644e+01 0.0000000000e+00 0.0000e+00 -1.0000e+00
      -11  1    4    4    0    0 +4.5981565060e+01 +4.5677371035e+01 -6.4997196365e+01 9.1789771137e+01 0.0000000000e+00 0.0000e+00 1.0000e+00
      -14  1    6    6    0    0 -8.2440931752e+01 +1.3736627338e+01 +7.7063456951e+01 1.1368367762e+02 0.0000000000e+00 0.0000e+00 1.0000e+00
       13  1    6    6    0    0 +8.9659793610e+00 +3.4986170780e+01 +2.5234269543e+01 4.4058929755e+01 0.0000000000e+00 0.0000e+00 -1.0000e+00
        5  1    3    3  501    0 -2.5736415079e+01 -7.2065494966e+01 -4.3780374005e+01 8.8287087244e+01 4.7000000000e+00 0.0000e+00 -1.0000e+00
       -5  1    5    5    0  502 +4.0532208620e+01 -1.3979584674e+01 +1.2399769608e+02 1.3128521378e+02 4.7000000000e+00 0.0000e+00 1.0000e+00
</event>
<event>
11      1 +3.3740700e+00 2.11825200e+02 7.54677100e-03 1.14042000e-01
       21 -1    0    0  501  502 +0.0000000000e+00 +0.0000000000e+00 +5.3798572487e+02 5.3798572487e+02 0.0000000000e+00 0.0000e+00 -1.0000e+00
       21 -1    0    0  502  503 -0.0000000000e+00 -0.0000000000e+00 -1.1723989382e+02 1.1723989382e+02 0.0000000000e+00 0.0000e+00 -1.0000e+00
       -6  2    1    2    0  503 +1.2049497192e+02 +1.9135770800e+01 +3.2340054389e+01 2.1281297800e+02 1.7134254728e+02 0.0000e+00 0.0000e+00
        6  2    1    2  501    0 -1.2049497192e+02 -1.9135770800e+01 +3.8840577667e+02 4.4241264069e+02 1.7316085385e+02 0.0000e+00 0.0000e+00
       24  2    4    4    0    0 -1.3464405274e+02 -5.6951642535e+01 +2.7692963246e+02 3.2375659418e+02 8.2193676256e+01 0.0000e+00 0.0000e+00
       14  1    5    5    0    0 -4.8918366856e+01 -1.5596923499e+01 +1.8287295308e+02 1.8994416971e+02 0.0000000000e+00 0.0000e+00 -1.0000e+00
      -13  1    5    5    0    0 -8.5725685888e+01 -4.1354719036e+01 +9.4056679376e+01 1.3381242447e+02 0.0000000000e+00 0.0000e+00 1.0000e+00
      -12  1    3    3    0    0 +3.3008866224e+01 +7.0314082893e+01 +4.3596730442e+01 8.9074858449e+01 0.0000000000e+00 0.0000e+00 1.0000e+00
       11  1    3    3    0    0 +2.5639115726e+01 +1.7170460910e+01 -4.6401428398e+00 3.1204485393e+01 0.0000000000e+00 0.0000e+00 -1.0000e+00
        5  1    4    4  501    0 +1.4149080825e+01 +3.7815871735e+01 +1.1147614421e+02 1.1865604650e+02 4.7000000000e+00 0.0000e+00 -1.0000e+00
       -5  1    3    3    0  503 +6.1846989970e+01 -6.8348773004e+01 -6.6165332132e+00 9.2533634162e+01 4.7000000000e+00 0.0000e+00 1.0000e+00
</event>
<event>
11      1 +3.3740700e+00 3.75345700e+02 7.54677100e-03 1.05484900e-01
       21 -1    0    0  501  502 +0.0000000000e+00 +0.0000000000e+00 +3.0697080566e+02 3.0697080566e+02 0.0000000000e+00 0.0000e+00 -1.0000e+00
       21 -1    0    0  502  503 -0.0000000000e+00 -0.0000000000e+00 -6.5324660748e+02 6.5324660748e+02 0.0000000000e+00 0.0000e+00 1.0000e+00
       -6  2    1    2    0  503 -3.0494378400e+02 +3.3352312581e+01 -4.4900833931e+02 5.7106659639e+02 1.7437167369e+02 0.0000e+00 0.0000e+00
      -24  2    3    3    0    0 -2.6530883110e+02 +7.9954884688e+01 -3.4390543263e+02 4.4936433589e+02 8.2920445790e+01 0.0000e+00 0.0000e+00
       24  2    1    2    0    0 +3.1706231630e+02 +6.4730013445e+00 +1.0716612539e+02 3.4702408941e+02 9.1491682896e+01 0.0000e+00 0.0000e+00
       12  1    5    5    0    0 +2.7669817436e+02 +2.8457370798e+00 +5.6981292288e+01 2.8251875263e+02 0.0000000000e+00 0.0000e+00 -1.0000e+00
      -11  1    5    5    0    0 +4.0364141934e+01 +3.6272642647e+00 +5.0184833104e+01 6.4505336786e+01 0.0000000000e+00 0.0000e+00 1.0000e+00
      -12  1    4    4    0    0 -1.5311951225e+02 +4.9780867599e+01 -2.6089968474e+02 3.0658174328e+02 0.0000000000e+00 0.0000e+00 1.0000e+00
       11  1    4    4    0    0 -1.1218931884e+02 +3.0174017088e+01 -8.3005747889e+01 1.4278259261e+02 0.0000000000e+00 0.0000e+00 -1.0000e+00
        5  1    1    2  501    0 -1.2118532294e+01 -3.9825313925e+01 -4.4335879023e+00 4.2126727334e+01 4.7000000000e+00 0.0000e+00 -1.0000e+00
       -5  1    3    3    0  503 -3.9634952904e+01 -4.6602572107e+01 -1.0510290668e+02 1.2170226050e+02 4.7000000000e+00 0.0000e+00 1.0000e+00
</event>
<event>
12      1 +3.3740700e+00 2.98106800e+02 7.54677100e-03 1.08640400e-01
       21 -1    0    0  503  502 +0.0000000000e+00 +0.0000000000e+00 +3.8107459480e+02 3.8107459480e+02 0.0000000000e+00 0.0000e+00 1.0000e+00
       21 -1    0    0  501  503 -0.0000000000e+00 -0.0000000000e+00 -6.0146663165e+02 6.0146663165e+02 0.0000000000e+00 0.0000e+00 -1.0000e+00
        6  2    1    2  501    0 +8.3319116589e+01 -2.2704046174e+02 -4.9517221223e+02 5.7711328975e+02 1.7139073190e+02 0.0000e+00 0.0000e+00
       24  2    3    3    0    0 +9.7349581766e+01 -1.5525849969e+02 -2.4488843857e+02 3.1631919206e+02 8.0655694951e+01 0.0000e+00 0.0000e+00
       -6  2    1    2    0  502 -8.3319116589e+01 +2.2704046174e+02 +2.7478017537e+02 4.0542793671e+02 1.7429348991e+02 0.0000e+00 0.0000e+00
      -24  2    5    5    0    0 +7.9006220283e+00 +1.7358232546e+02 +1.9494123653e+02 2.7285660043e+02 7.9091056087e+01 0.0000e+00 0.0000e+00
       12  1    4    4    0    0 +3.1644675275e+01 -8.7062513111e+01 -1.7708132937e+02 1.9984760162e+02 0.0000000000e+00 0.0000e+00 -1.0000e+00
      -11  1    4    4    0    0 +6.5704906491e+01 -6.8195986574e+01 -6.7807109196e+01 1.1647159044e+02 0.0000000000e+00 0.0000e+00 1.0000e+00
      -12  1    6    6    0    0 -1.7862962015e+01 +1.3213501588e+02 +1.7530735426e+02 2.2025307328e+02 0.0000000000e+00 0.0000e+00 1.0000e+00
       11  1    6    6    0    0 +2.5763584043e+01 +4.1447309587e+01 +1.9633882272e+01 5.2603527143e+01 0.0000000000e+00 0.0000e+00 -1.0000e+00
        5  1    3    3  501    0 -1.4030465177e+01 -7.1781962057e+01 -2.5028377366e+02 2.6079409769e+02 4.7000000000e+00 0.0000e+00 -1.0000e+00
       -5  1    5    5    0  502 -9.1219738617e+01 +5.3458136279e+01 +7.9838938842e+01 1.3257133628e+02 4.7000000000e+00 0.0000e+00 1.0000e+00
</event>
<event>
12      1 +3.3740700e+00 2.35148000e+02 7.54677100e-03 1.12306800e-01
       -2 -1    0    0    0  501 -0.0000000000e+00 +0.0000000000e+00 +1.8818662893e+02 1.8818662893e+02 0.0000000000e+00 0.0000e+00 1.0000e+00
        2 -1    0    0  502    0 +0.0000000000e+00 -0.0000000000e+00 -3.1003676412e+02 3.1003676412e+02 0.0000000000e+00 0.0000e+00 -1.0000e+00
        6  2    1    2  502    0 -5.3905732775e+01 +1.4980031224e+02 -1.1788183102e+02 2.6303604946e+02 1.7304876670e+02 0.0000e+00 0.0000e+00
       24  2    3    3    0    0 -6.2378415210e+01 +2.8587211453e+01 -9.0847017934e+01 1.3846730029e+02 7.8814448165e+01 0.0000e+00 0.0000e+00
       -6  2    1    2    0  501 +5.3905732775e+01 -1.4980031224e+02 -3.9683041620e+00 2.3518734359e+02 1.7306466298e+02 0.0000e+00 0.0000e+00
      -24  2    5    5    0    0 +3.2130458665e+01 -7.7916019099e+01 +6.2724738611e+01 1.3463106026e+02 8.4189412315e+01 0.0000e+00 0.0000e+00
       12  1    4    4    0    0 -7.6054178849e+01 +3.7513212159e+00 -6.6229654140e+01 1.0091916378e+02 0.0000000000e+00 0.0000e+00 -1.0000e+00
      -11  1    4    4    0    0 +1.3675763640e+01 +2.4835890237e+01 -2.4617363795e+01 3.7548136507e+01 0.0000000000e+00 0.0000e+00 1.0000e+00
      -12  1    6    6    0    0 +5.6764510606e+01 -6.0199298002e+01 +6.3465550613e+01 1.0427867116e+02 0.0000000000e+00 0.0000e+00 1.0000e+00
       11  1    6    6    0    0 -2.4634051942e+01 -1.7716721098e+01 -7.4081200164e-01 3.0352389098e+01 0.0000000000e+00 0.0000e+00 -1.0000e+00
        5  1    3    3  502    0 +8.4726824351e+00 +1.2121310079e+02 -2.7034813090e+01 1.2456874917e+02 4.7000000000e+00 0.0000e+00 -1.0000e+00
       -5  1    5    5    0  501 +2.1775274110e+01 -7.1884293143e+01 -6.6693042773e+01 1.0055628333e+02 4.7000000000e+00 0.0000e+00 1.0000e+00
</event>
<event>
12      1 +3.3740700e+00 2.74300300e+02 7.54677100e-03 1.09917100e-01
       21 -1    0    0  503  502 +0.0000000000e+00 +0.0000000000e+00 +2.9674261642e+02 2.9674261642e+02 0.0000000000e+00 0.0000e+00 1.0000e+00
       21 -1    0    0  501  503 -0.0000000000e+00 -0.0000000000e+00 -4.7795601697e+02 4.7795601697e+02 0.0000000000e+00 0.0000e+00 -1.0000e+00
        6  2    1    2  501    0 +2.4401061776e+01 +2.1160580620e+02 +1.7586780598e+02 3.2583755633e+02 1.7282418494e+02 0.0000e+00 0.0000e+00
       24  2    3    3    0    0 +4.4631723760e+01 +5.0565069737e+01 +1.0609081902e+02 1.4910522654e+02 8.0176615399e+01 0.0000e+00 0.0000e+00
       -6  2    1    2    0  502 -2.4401061776e+01 -2.1160580620e+02 -3.5708120653e+02 4.4886107707e+02 1.6910603009e+02 0.0000e+00 0.0000e+00
      -24  2    5    5    0    0 -3.0376040961e+01 -1.0172567634e+02 -2.9121428828e+02 3.2052603027e+02 8.1611012099e+01 0.0000e+00 0.0000e+00
       14  1    4    4    0    0 +6.1181538508e+00 -1.1487185024e+01 -6.7739602122e+00 1.4672210579e+01 0.0000000000e+00 0.0000e+00 -1.0000e+00
      -13  1    4    4    0    0 +3.8513569909e+01 +6.2052254761e+01 +1.1286477924e+02 1.3443301596e+02 0.0000000000e+00 0.0000e+00 1.0000e+00
      -12  1    6    6    0    0 -1.1785105022e+01 -1.7084289862e+01 -1.7142724611e+02 1.7267907334e+02 0.0000000000e+00 0.0000e+00 1.0000e+00
       11  1    6    6    0    0 -1.8590935939e+01 -8.4641386476e+01 -1.1978704217e+02 1.4784695693e+02 0.0000000000e+00 0.0000e+00 -1.0000e+00
        5  1    3    3  501    0 -2.0230661984e+01 +1.6104073646e+02 +6.9776986957e+01 1.7673232979e+02 4.7000000000e+00 0.0000e+00 -1.0000e+00
       -5  1    5    5    0  502 +5.9749791848e+00 -1.0988012986e+02 -6.5866918258e+01 1.2833504679e+02 4.7000000000e+00 0.0000e+00 1.0000e+00
</event>
<event>
12      1 +3.3740700e+00 1.93648000e+02 7.54677100e-03 1.15553100e-01
       21 -1    0    0  501  502 +0.0000000000e+00 +0.0000000000e+00 +4.3236326376e+01 4.3236326376e+01 0.0000000000e+00 0.0000e+00 -1.0000e+00
       21 -1    0    0  502  503 -0.0000000000e+00 -0.0000000000e+00 -9.5865896650e+02 9.5865896650e+02 0.0000000000e+00 0.0000e+00 -1.0000e+00
       -6  2    1    2    0  503 -1.9156602724e+01 +8.5308784040e+01 -6.1617994596e+02 6.4546055521e+02 1.7116377674e+02 0.0000e+00 0.0000e+00
      -24  2    3    3    0    0 +4.6810309656e+01 +2.2424558021e+01 -2.2564435469e+02 2.4440420324e+02 7.8255823195e+01 0.0000e+00 0.0000e+00
        6  2    1    2  501    0 +1.9156602724e+01 -8.5308784040e+01 -2.9924269416e+02 3.5643473767e+02 1.7278590261e+02 0.0000e+00 0.0000e+00
       24  2    5    5    0    0 -3.4935901919e+01 -7.9831194505e+01 -1.1823092794e+02 1.6737561317e+02 8.0265227225e+01 0.0000e+00 0.0000e+00
       12  1    6    6    0    0 -5.2070268287e+01 -7.5629543869e+01 -1.1827508526e+02 1.4973355181e+02 0.0000000000e+00 0.0000e+00 -1.0000e+00
      -11  1    6    6    0    0 +1.7134366368e+01 -4.2016506364e+00 +4.4157317562e-02 1.7642061353e+01 0.0000000000e+00 0.0000e+00 1.0000e+00
      -12  1    4    4    0    0 -6.3474114129e+00 -2.2533444583e+01 -4.3340171249e+01 4.9258666246e+01 0.0000000000e+00 0.0000e+00 1.0000e+00
       11  1    4    4    0    0 +5.3157721069e+01 +4.4958002605e+01 -1.8230418344e+02 1.9514553699e+02 0.0000000000e+00 0.0000e+00 -1.0000e+00
        5  1    5    5  501    0 +5.4092504643e+01 -5.4775895345e+00 -1.8101176622e+02 1.8905912450e+02 4.7000000000e+00 0.0000e+00 -1.0000e+00
       -5  1    3    3    0  503 -6.5966912381e+01 +6.2884226018e+01 -3.9053559127e+02 4.0105635198e+02 4.7000000000e+00 0.0000e+00 1.0000e+00
</event>
<event>
12      1 +3.3740700e+00 3.21279100e+02 7.54677100e-03 1.07516200e-01
       21 -1    0    0  503  502 +0.0000000000e+00 +0.0000000000e+00 +1.7933853656e+02 1.7933853656e+02 0.0000000000e+00 0.0000e+00 1.0000e+00
       21 -1    0    0  501  503 -0.0000000000e+00 -0.0000000000e+00 -7.3877010226e+02 7.3877010226e+02 0.0000000000e+00 0.0000e+00 -1.0000e+00
        6  2    1    2  501    0 +2.6967625495e+02 +1.2900963436e+01 -4.9680574971e+02 5.9163856228e+02 1.7415084867e+02 0.0000e+00 0.0000e+00
       24  2    3    3    0    0 +8.4599235716e+01 -1.7950986671e+01 -2.8070447817e+02 3.0540929153e+02 8.3669365252e+01 0.0000e+00 0.0000e+00
       -6  2    1    2    0  502 -2.6967625495e+02 -1.2900963436e+01 -6.2625815993e+01 3.2647007654e+02 1.7253695461e+02 0.0000e+00 0.0000e+00
      -24  2    5    5    0    0 -5.1629912006e+01 -1.0460465732e+00 +1.9389534555e+01 9.3160508691e+01 7.5074524987e+01 0.0000e+00 0.0000e+00
       12  1    4    4    0    0 +4.6577929640e+01 -5.1620453451e+01 -1.5962950486e+02 1.7411419691e+02 0.0000000000e+00 0.0000e+00 -1.0000e+00
      -11  1    4    4    0    0 +3.8021306076e+01 +3.3669466780e+01 -1.2107497331e+02 1.3129509462e+02 0.0000000000e+00 0.0000e+00 1.0000e+00
      -14  1    6    6    0    0 -2.0098240011e+01 +4.1913808457e+00 +4.6766882311e+01 5.1074927372e+01 0.0000000000e+00 0.0000e+00 1.0000e+00
       13  1    6    6    0    0 -3.1531671995e+01 -5.2374274189e+00 -2.7377347756e+01 4.2085581319e+01 0.0000000000e+00 0.0000e+00 -1.0000e+00
        5  1    3    3  501    0 +1.8507701924e+02 +3.0851950107e+01 -2.1610127154e+02 2.8622927075e+02 4.7000000000e+00 0.0000e+00 -1.0000e+00
       -5  1    5    5    0  502 -2.1804634295e+02 -1.1854916863e+01 -8.2015350548e+01 2.3330956785e+02 4.7000000000e+00 0.0000e+00 1.0000e+00
</event>
<event>
11      1 +3.3740700e+00 2.46722900e+02 7.54677100e-03 1.11539400e-01
       -1 -1    0    0    0  501 -0.0000000000e+00 +0.0000000000e+00 +4.8958857254e+01 4.8958857254e+01 0.0000000000e+00 0.0000e+00 -1.0000e+00
        1 -1    0    0  502    0 +0.0000000000e+00 -0.0000000000e+00 -1.4613166456e+03 1.4613166456e+03 0.0000000000e+00 0.0000e+00 1.0000e+00
       24  2    1    2    0    0 +1.5834958543e+01 +4.3727213016e+01 -2.2266898428e+02 2.4138598984e+02 8.0764499977e+01 0.0000e+00 0.0000e+00
       -6  2    1    2    0  501 -1.5228776530e+02 +3.8094783994e+01 -9.6682506101e+02 9.9501993525e+02 1.7513194142e+02 0.0000e+00 0.0000e+00
      -24  2    4    4    0    0 -1.1398049896e+01 +4.0956102857e+01 -2.4418695477e+02 2.5875502256e+02 7.4293841731e+01 0.0000e+00 0.0000e+00
       12  1    3    3    0    0 +3.4664209041e+01 +3.9834847757e+01 -2.1377667989e+02 2.2020193312e+02 0.0000000000e+00 0.0000e+00 -1.0000e+00
      -11  1    3    3    0    0 -1.8829250497e+01 +3.8923652583e+00 -8.8923043958e+00 2.1184056719e+01 0.0000000000e+00 0.0000e+00 1.0000e+00
      -14  1    5    5    0    0 -1.9540715497e+01 +3.3541993795e+01 -2.4467169776e+02 2.4773200156e+02 0.0000000000e+00 0.0000e+00 1.0000e+00
       13  1    5    5    0    0 +8.1426656014e+00 +7.4141090613e+00 +4.8474299451e-01 1.1023021003e+01 0.0000000000e+00 0.0000e+00 -1.0000e+00
        5  1    1    2  502    0 +1.3645280676e+02 -8.1821997010e+01 -2.2286374307e+02 2.7386957779e+02 4.7000000000e+00 0.0000e+00 -1.0000e+00
       -5  1    4    4    0  501 -1.4088971540e+02 -2.8613188623e+00 -7.2263810625e+02 7.3626491268e+02 4.7000000000e+00 0.0000e+00 1.0000e+00
</event>
<event>
12      1 +3.3740700e+00 2.85072500e+02 7.54677100e-03 1.09328900e-01
       21 -1    0    0  503  502 +0.0000000000e+00 +0.0000000000e+00 +4.3159343973e+02 4.3159343973e+02 0.0000000000e+00 0.0000e+00 1.0000e+00
       21 -1    0    0  501  503 -0.0000000000e+00 -0.0000000000e+00 -3.0551734081e+02 3.0551734081e+02 0.0000000000e+00 0.0000e+00 -1.0000e+00
        6  2    1    2  501    0 -8.3622937800e+00 -2.2630686683e+02 -1.6703902433e+02 3.2823086077e+02 1.6896371321e+02 0.0000e+00 0.0000e+00
       24  2    3    3    0    0 -3.4136903678e+01 -1.4450179895e+02 -3.7890712915e+01 1.7312516781e+02 8.0563760547e+01 0.0000e+00 0.0000e+00
       -6  2    1    2    0  502 +8.3622937800e+00 +2.2630686683e+02 +2.9311512325e+02 4.0887991977e+02 1.7315191994e+02 0.0000e+00 0.0000e+00
      -24  2    5    5    0    0 -2.5105805282e+01 +3.6792209078e+01 +7.2567494636e+01 1.1613555066e+02 7.8977571129e+01 0.0000e+00 0.0000e+00
       12  1    4    4    0    0 +6.8698946660e-01 -1.3188760433e+02 -2.9438018463e+01 1.3513478109e+02 0.0000000000e+00 0.0000e+00 -1.0000e+00
      -11  1    4    4    0    0 -3.4823893145e+01 -1.2614194619e+01 -8.4526944519e+00 3.7990386720e+01 0.0000000000e+00 0.0000e+00 1.0000e+00
      -12  1    6    6    0    0 -5.2635280282e+01 +1.2955162765e+01 +4.5300349888e+01 7.0642980350e+01 0.0000000000e+00 0.0000e+00 1.0000e+00
       11  1    6    6    0    0 +2.7529475000e+01 +2.3837046313e+01 +2.7267144748e+01 4.5492570310e+01 0.0000000000e+00 0.0000e+00 -1.0000e+00
        5  1    3    3  501    0 +2.5774609898e+01 -8.1805067887e+01 -1.2914831141e+02 1.5510569296e+02 4.7000000000e+00 0.0000e+00 -1.0000e+00
       -5  1    5    5    0  502 +3.3468099062e+01 +1.8951465776e+02 +2.2054762861e+02 2.9274436911e+02 4.7000000000e+00 0.0000e+00 1.0000e+00
</event>
<event>
12      1 +3.3740700e+00 1.93254500e+02 7.54677100e-03 1.15560700e-01
       21 -1    0    0  501  502 +0.0000000000e+00 +0.0000000000e+00 +2.5423086323e+02 2.5423086323e+02 0.0000000000e+00 0.0000e+00 1.0000e+00
       21 -1    0    0  502  503 -0.0000000000e+00 -0.0000000000e+00 -1.4732358062e+02 1.4732358062e+02 0.0000000000e+00 0.0000e+00 -1.0000e+00
       -6  2    1    2    0  503 +8.4962896118e+01 -5.0806969981e+00 +4.0807420373e+01 1.9751590977e+02 1.7350153272e+02 0.0000e+00 0.0000e+00
      -24  2    3    3    0    0 +1.1545425237e+01 +1.9514015211e+01 -3.3723683584e+01 8.9942677242e+01 8.0239047362e+01 0.0000e+00 0.0000e+00
        6  2    1    2  501    0 -8.4962896118e+01 +5.0806969981e+00 +6.6099862237e+01 2.0403853409e+02 1.7325710492e+02 0.0000e+00 0.0000e+00
       24  2    5    5    0    0 -6.6630585187e+01 -6.3696733969e+01 +2.8983226968e+01 1.2362620140e+02 7.7113561884e+01 0.0000e+00 0.0000e+00
       14  1    6    6    0    0 -6.1387750290e+01 -5.3384625973e+01 +5.2912768261e+01 9.7047077344e+01 0.0000000000e+00 0.0000e+00 -1.0000e+00
      -13  1    6    6    0    0 -5.2428348971e+00 -1.0312107996e+01 -2.3929541293e+01 2.6579124056e+01 0.0000000000e+00 0.0000e+00 1.0000e+00
      -12  1    4    4    0    0 +2.9716696880e+01 +3.7837462733e+01 -4.0911322069e+01 6.3154508414e+01 0.0000000000e+00 0.0000e+00 1.0000e+00
       11  1    4    4    0    0 -1.8171271643e+01 -1.8323447522e+01 +7.1876384853e+00 2.6788168829e+01 0.0000000000e+00 0.0000e+00 -1.0000e+00
        5  1    5    5  501    0 -1.8332310931e+01 +6.8777430967e+01 +3.7116635269e+01 8.0412332687e+01 4.7000000000e+00 0.0000e+00 -1.0000e+00
       -5  1    3    3    0  503 +7.3417470881e+01 -2.4594712210e+01 +7.4531103957e+01 1.0757323253e+02 4.7000000000e+00 0.0000e+00 1.0000e+00
</event>
<event>
12      1 +3.3740700e+00 2.23541700e+02 7.54677100e-03 1.13127000e-01
        2 -1    0    0  502    0 +0.0000000000e+00 +0.0000000000e+00 +6.6592367035e+01 6.6592367035e+01 0.0000000000e+00 0.0000e+00 1.0000e+00
       -2 -1    0    0    0  501 -0.0000000000e+00 -0.0000000000e+00 -7.7671750738e+02 7.7671750738e+02 0.0000000000e+00 0.0000e+00 -1.0000e+00
        6  2    1    2  502    0 -7.1513706758e+01 +1.1947639628e+02 -2.7820728708e+02 3.5719831346e+02 1.7550647007e+02 0.0000e+00 0.0000e+00
       24  2    3    3    0    0 -1.1648290927e+02 +8.7819612712e+01 -1.8883276056e+02 2.5215414603e+02 8.1506744337e+01 0.0000e+00 0.0000e+00
       -6  2    1    2    0  501 +7.1513706758e+01 -1.1947639628e+02 -4.3191785327e+02 4.8611156095e+02 1.7424866770e+02 0.0000e+00 0.0000e+00
      -24  2    5    5    0    0 +9.3414639087e+01 -6.1366683858e+01 -1.7889838892e+02 2.2554040204e+02 7.9822770635e+01 0.0000e+00 0.0000e+00
       12  1    4    4    0    0 -1.3648886550e+01 +5.2351188033e+01 -9.0922408516e+01 1.0580086655e+02 0.0000000000e+00 0.0000e+00 -1.0000e+00
      -11  1    4    4    0    0 -1.0283402272e+02 +3.5468424679e+01 -9.7910352042e+01 1.4635327948e+02 0.0000000000e+00 0.0000e+00 1.0000e+00
      -14  1    6    6    0    0 +9.1452835654e+01 -3.4738672534e+01 -9.0757145817e+01 1.3344383101e+02 0.0000000000e+00 0.0000e+00 1.0000e+00
       13  1    6    6    0    0 +1.9618034336e+00 -2.6628011325e+01 -8.8141243100e+01 9.2096571027e+01 0.0000000000e+00 0.0000e+00 -1.0000e+00
        5  1    3    3  502    0 +4.4969202513e+01 +3.1656783573e+01 -8.9374526518e+01 1.0504416743e+02 4.7000000000e+00 0.0000e+00 -1.0000e+00
       -5  1    5    5    0  501 -2.1900932329e+01 -5.8109712426e+01 -2.5301946435e+02 2.6057115891e+02 4.7000000000e+00 0.0000e+00 1.0000e+00
</event>
<event>
12      1 +3.3740700e+00 1.83415600e+02 7.54677100e-03 1.16453800e-01
        2 -1    0    0  502    0 +0.0000000000e+00 +0.0000000000e+00 +4.3018402777e+02 4.3018402777e+02 0.0000000000e+00 0.0000e+00 1.0000e+00
       -2 -1    0    0    0  501 -0.0000000000e+00 -0.0000000000e+00 -9.1551943730e+01 9.1551943730e+01 0.0000000000e+00 0.0000e+00 -1.0000e+00
        6  2    1    2  502    0 +5.8661094861e+01 -9.2469909373e+00 +6.9883223597e+01 1.9649339436e+02 1.7377962538e+02 0.0000e+00 0.0000e+00
       24  2    3    3    0    0 +2.7266278605e+00 -1.4888804332e+01 -2.6329618169e+01 8.4960907715e+01 7.9347312828e+01 0.0000e+00 0.0000e+00
       -6  2    1    2    0  501 -5.8661094861e+01 +9.2469909373e+00 +2.6874886044e+02 3.2524257714e+02 1.7329210341e+02 0.0000e+00 0.0000e+00
      -24  2    5    5    0    0 +1.0185248082e+01 -2.8814139278e+01 +6.7428437990e+01 1.0904713069e+02 8.0066775635e+01 0.0000e+00 0.0000e+00
       14  1    4    4    0    0 +2.0679532383e+01 +2.0872084755e+01 -3.3229137924e+01 4.4356088520e+01 0.0000000000e+00 0.0000e+00 -1.0000e+00
      -13  1    4    4    0    0 -1.7952904523e+01 -3.5760889087e+01 +6.8995197553e+00 4.0604819196e+01 0.0000000000e+00 0.0000e+00 1.0000e+00
      -12  1    6    6    0    0 -1.1015992041e+01 +2.1086041632e+01 +1.7112578716e+00 2.3851658975e+01 0.0000000000e+00 0.0000e+00 1.0000e+00
       11  1    6    6    0    0 +2.1201240122e+01 -4.9900180910e+01 +6.5717180119e+01 8.5195471713e+01 0.0000000000e+00 0.0000e+00 -1.0000e+00
        5  1    3    3  502    0 +5.5934467000e+01 +5.6418133947e+00 +9.6212841766e+01 1.1153248665e+02 4.7000000000e+00 0.0000e+00 -1.0000e+00
       -5  1    5    5    0  501 -6.8846342942e+01 +3.8061130215e+01 +2.0132042245e+02 2.1619544645e+02 4.7000000000e+00 0.0000e+00 1.0000e+00
</event>
<event>
12      1 +3.3740700e+00 2.06886400e+02 7.54677100e-03 1.14408900e-01
       21 -1    0    0  503  502 +0.0000000000e+00 +0.0000000000e+00 +1.4978612234e+02 1.4978612234e+02 0.0000000000e+00 0.0000e+00 1.0000e+00
       21 -1    0    0  501  503 -0.0000000000e+00 -0.0000000000e+00 -3.0326807386e+02 3.0326807386e+02 0.0000000000e+00 0.0000e+00 -1.0000e+00
        6  2    1    2  501    0 -6.3927323302e+01 -9.5236565056e+01 -1.3150440730e+02 2.4500374869e+02 1.7197884098e+02 0.0000e+00 0.0000e+00
       24  2    3    3    0    0 -4.8124003144e+01 -1.2567199681e+02 -1.3775491362e+02 2.0982962093e+02 8.3322764786e+01 0.0000e+00 0.0000e+00
       -6  2    1    2    0  502 +6.3927323302e+01 +9.5236565056e+01 -2.1977544218e+01 2.0805044751e+02 1.7217801913e+02 0.0000e+00 0.0000e+00
      -24  2    5    5    0    0 -2.5479658423e+00 +7.4802328245e+01 -6.4297892780e+01 1.2650522078e+02 7.9167363394e+01 0.0000e+00 0.0000e+00
       14  1    4    4    0    0 -5.9541274117e+01 -9.1406628505e+01 -6.0960902969e+01 1.2496626244e+02 0.0000000000e+00 0.0000e+00 -1.0000e+00
      -13  1    4    4    0    0 +1.1417270972e+01 -3.4265368307e+01 -7.6794010654e+01 8.4863358489e+01 0.0000000000e+00 0.0000e+00 1.0000e+00
      -12  1    6    6    0    0 -2.8931869418e+01 +7.6985560306e+01 -4.5042173745e+01 9.3769008630e+01 0.0000000000e+00 0.0000e+00 1.0000e+00
       11  1    6    6    0    0 +2.6383903576e+01 -2.1832320608e+00 -1.9255719035e+01 3.2736212146e+01 0.0000000000e+00 0.0000e+00 -1.0000e+00
        5  1    3    3  501    0 -1.5803320158e+01 +3.0435431755e+01 +6.2505063271e+00 3.5174127757e+01 4.7000000000e+00 0.0000e+00 -1.0000e+00
       -5  1    5    5    0  502 +6.6475289145e+01 +2.0434236811e+01 +4.2320348561e+01 8.1545226735e+01 4.7000000000e+00 0.0000e+00 1.0000e+00
</event>
<event>
12      1 +3.3740700e+00 2.16889800e+02 7.54677100e-03 1.13633200e-01
       21 -1    0    0  503  502 +0.0000000000e+00 +0.0000000000e+00 +2.7320293619e+02 2.7320293619e+02 0.0000000000e+00 0.0000e+00 -1.0000e+00
       21 -1    0    0  501  503 -0.0000000000e+00 -0.0000000000e+00 -1.7443297798e+02 1.7443297798e+02 0.0000000000e+00 0.0000e+00 1.0000e+00
        6  2    1    2  501    0 +1.2894394453e+01 +1.2935479785e+02 +7.7299682831e+01 2.3025291659e+02 1.7361519374e+02 0.0000e+00 0.0000e+00
       24  2    3    3    0    0 -9.0618456250e+00 +8.5098983403e+01 +1.1506642062e+02 1.6789050745e+02 8.7309720611e+01 0.0000e+00 0.0000e+00
       -6  2    1    2    0  502 -1.2894394453e+01 -1.2935479785e+02 +2.1470275379e+01 2.1738299758e+02 1.7290305312e+02 0.0000e+00 0.0000e+00
      -24  2    5    5    0    0 +2.3069266911e+01 -5.6457222702e+01 +7.0440885977e+01 1.2236904017e+02 7.9326253563e+01 0.0000e+00 0.0000e+00
       12  1    4    4    0    0 -3.4356500016e+01 +1.8563172655e+01 +7.8928948792e+01 8.8060998347e+01 0.0000000000e+00 0.0000e+00 -1.0000e+00
      -11  1    4    4    0    0 +2.5294654391e+01 +6.6535810749e+01 +3.6137471830e+01 7.9829509099e+01 0.0000000000e+00 0.0000e+00 1.0000e+00
      -12  1    6    6    0    0 +4.1449341058e+01 -1.4989332640e+01 +7.3804837680e+00 4.4690038127e+01 0.0000000000e+00 0.0000e+00 1.0000e+00
       11  1    6    6    0    0 -1.8380074147e+01 -4.1467890062e+01 +6.3060402209e+01 7.7679002044e+01 0.0000000000e+00 0.0000e+00 -1.0000e+00
        5  1    3    3  501    0 +2.1956240078e+01 +4.4255814444e+01 -3.7766737792e+01 6.2362409141e+01 4.7000000000e+00 0.0000e+00 -1.0000e+00
       -5  1    5    5    0  502 -3.5963661364e+01 -7.2897575145e+01 -4.8970610598e+01 9.5013957412e+01 4.7000000000e+00 0.0000e+00 1.0000e+00
</event>
<event>
12      1 +3.3740700e+00 2.32488800e+02 7.54677100e-03 1.12490000e-01
       -1 -1    0    0    0  501 -0.0000000000e+00 +0.0000000000e+00 +9.4477220521e+01 9.4477220521e+01 0.0000000000e+00 0.0000e+00 -1.0000e+00
        1 -1    0    0  502    0 +0.0000000000e+00 -0.0000000000e+00 -5.7253440348e+02 5.7253440348e+02 0.0000000000e+00 0.0000e+00 1.0000e+00
        6  2    1    2  502    0 +6.5595201558e+01 +1.4478109652e+02 -2.2800558294e+02 3.2373439555e+02 1.6599131494e+02 0.0000e+00 0.0000e+00
       24  2    3    3    0    0 +4.7075267218e+01 +8.6739670866e+01 -5.1400475901e+01 1.3685676476e+02 7.9673796518e+01 0.0000e+00 0.0000e+00
       -6  2    1    2    0  501 -6.5595201558e+01 -1.4478109652e+02 -2.5005160002e+02 3.4327722845e+02 1.7334692534e+02 0.0000e+00 0.0000e+00
      -24  2    5    5    0    0 -2.2795219252e+01 -1.9660297793e+01 -1.0950905976e+02 1.5024524047e+02 9.8362842506e+01 0.0000e+00 0.0000e+00
       12  1    4    4    0    0 +4.3061623534e+01 +5.2128698311e+01 +7.9033285264e+00 6.8074717853e+01 0.0000000000e+00 0.0000e+00 -1.0000e+00
      -11  1    4    4    0    0 +4.0136436837e+00 +3.4610972555e+01 -5.9303804428e+01 6.8782046905e+01 0.0000000000e+00 0.0000e+00 1.0000e+00
      -14  1    6    6    0    0 -2.7071020875e+01 +1.5078317233e+01 -1.1096882437e+02 1.1521404343e+02 0.0000000000e+00 0.0000e+00 1.0000e+00
       13  1    6    6    0    0 +4.2758016232e+00 -3.4738615026e+01 +1.4597646131e+00 3.5031197042e+01 0.0000000000e+00 0.0000e+00 -1.0000e+00
        5  1    3    3  502    0 +1.8519934340e+01 +5.8041425651e+01 -1.7660510704e+02 1.8687763079e+02 4.7000000000e+00 0.0000e+00 -1.0000e+00
       -5  1    5    5    0  501 -4.2799982306e+01 -1.2512079872e+02 -1.4054254027e+02 1.9303198798e+02 4.7000000000e+00 0.0000e+00 1.0000e+00
</event>
<event>
12      1 +3.3740700e+00 3.64096900e+02 7.54677100e-03 1.05700200e-01
       21 -1    0    0  503  502 +0.0000000000e+00 +0.0000000000e+00 +5.8461330090e+02 5.8461330090e+02 0.0000000000e+00 0.0000e+00 1.0000e+00
       21 -1    0    0  501  503 -0.0000000000e+00 -0.0000000000e+00 -2.6746350454e+02 2.6746350454e+02 0.0000000000e+00 0.0000e+00 -1.0000e+00
        6  2    1    2  501    0 +5.9701365183e+01 +3.1437812727e+02 -7.9454638187e+00 3.6418353882e+02 1.7369127681e+02 0.0000e+00 0.0000e+00
       24  2    3    3    0    0 +9.0469952204e+01 +1.3926037680e+02 -1.7935710877e+01 1.8604082211e+02 8.1922115274e+01 0.0000e+00 0.0000e+00
       -6  2    1    2    0  502 -5.9701365183e+01 -3.1437812727e+02 +3.2509526018e+02 4.8789326662e+02 1.7307527700e+02 0.0000e+00 0.0000e+00
      -24  2    5    5    0    0 -1.0064959438e+02 -2.5995923440e+02 +2.9352367068e+02 4.1268004544e+02 8.0246683791e+01 0.0000e+00 0.0000e+00
       14  1    4    4    0    0 +9.0011833560e+01 +9.9823796407e+01 +1.4207660469e+01 1.3516204395e+02 0.0000000000e+00 0.0000e+00 -1.0000e+00
      -13  1    4    4    0    0 +4.5811864373e-01 +3.9436580389e+01 -3.2143371346e+01 5.0878778159e+01 0.0000000000e+00 0.0000e+00 1.0000e+00
      -14  1    6    6    0    0 -1.0013900828e+02 -2.4337972769e+02 +2.3834868599e+02 3.5506564033e+02 0.0000000000e+00 0.0000e+00 1.0000e+00
       13  1    6    6    0    0 -5.1058610309e-01 -1.6579506708e+01 +5.5174984697e+01 5.7614405118e+01 0.0000000000e+00 0.0000e+00 -1.0000e+00
        5  1    3    3  501    0 -3.0768587021e+01 +1.7511775047e+02 +9.9902470584e+00 1.7814271670e+02 4.7000000000e+00 0.0000e+00 -1.0000e+00
       -5  1    5    5    0  502 +4.0948229197e+01 -5.4418892870e+01 +3.1571589498e+01 7.5213221172e+01 4.7000000000e+00 0.0000e+00 1.0000e+00
</event>
<event>
12      1 +3.3740700e+00 1.88802700e+02 7.54677100e-03 1.16072800e-01
       21 -1    0    0  503  502 +0.0000000000e+00 +0.0000000000e+00 +3.8192616717e+01 3.8192616717e+01 0.0000000000e+00 0.0000e+00 -1.0000e+00
       21 -1    0    0  501  503 -0.0000000000e+00 -0.0000000000e+00 -1.4126161358e+03 1.4126161358e+03 0.0000000000e+00 0.0000e+00 -1.0000e+00
        6  2    1    2  501    0 +7.7749375902e+01 +2.7088670180e+00 -1.1267445903e+03 1.1424534299e+03 1.7202954506e+02 0.0000e+00 0.0000e+00
       24  2    3    3    0    0 +7.8806265800e+01 +6.2682498352e+01 -8.0947849825e+02 8.1953267087e+02 7.8986304841e+01 0.0000e+00 0.0000e+00
       -6  2    1    2    0  502 -7.7749375902e+01 -2.7088670180e+00 -2.4767892881e+02 3.0835532262e+02 1.6639065417e+02 0.0000e+00 0.0000e+00
      -24  2    5    5    0    0 -4.5334376218e+01 -6.2296300967e+01 -1.8522114344e+02 2.1602732338e+02 8.0155459506e+01 0.0000e+00 0.0000e+00
       12  1    4    4    0    0 +7.6279634645e+01 +2.5934423991e+01 -6.8490523047e+02 6.8962769067e+02 0.0000000000e+00 0.0000e+00 -1.0000e+00
      -11  1    4    4    0    0 +2.5266311547e+00 +3.6748074360e+01 -1.2457326778e+02 1.2990498020e+02 0.0000000000e+00 0.0000e+00 1.0000e+00
      -14  1    6    6    0    0 -4.7155484780e+01 -4.0467266207e+01 -1.8386403819e+02 1.9408045733e+02 0.0000000000e+00 0.0000e+00 1.0000e+00
       13  1    6    6    0    0 +1.8211085619e+00 -2.1829034761e+01 -1.3571052586e+00 2.1946866056e+01 0.0000000000e+00 0.0000e+00 -1.0000e+00
        5  1    3    3  501    0 -1.0568898977e+00 -5.9973631334e+01 -3.1726609204e+02 3.2292075906e+02 4.7000000000e+00 0.0000e+00 -1.0000e+00
       -5  1    5    5    0  502 -3.2414999684e+01 +5.9587433949e+01 -6.2457785369e+01 9.2327999233e+01 4.7000000000e+00 0.0000e+00 1.0000e+00
</event>
<event>
12      1 +3.3740700e+00 2.40139000e+02 7.54677100e-03 1.11985700e-01
       21 -1    0    0  503  502 +0.0000000000e+00 +0.0000000000e+00 +1.1408040510e+02 1.1408040510e+02 0.0000000000e+00 0.0000e+00 -1.0000e+00
       21 -1    0    0  501  503 -0.0000000000e+00 -0.0000000000e+00 -5.3157037077e+02 5.3157037077e+02 0.0000000000e+00 0.0000e+00 1.0000e+00
        6  2    1    2  501    0 +1.6572796914e+02 -1.4102556559e+01 -2.8251913880e+02 3.7018052426e+02 1.7190670404e+02 0.0000e+00 0.0000e+00
       24  2    3    3    0    0 +2.4551297984e+01 -4.3938503332e+01 -9.6207453324e+01 1.3447908102e+02 7.9343499101e+01 0.0000e+00 0.0000e+00
       -6  2    1    2    0  502 -1.6572796914e+02 +1.4102556559e+01 -1.3497082686e+02 2.7547025161e+02 1.7321112425e+02 0.0000e+00 0.0000e+00
      -24  2    5    5    0    0 -1.5815396655e+02 -2.7217318327e+01 -6.0635887324e+01 1.8995726539e+02 8.1569554921e+01 0.0000e+00 0.0000e+00
       12  1    4    4    0    0 -1.9541653125e+01 +8.6368813694e+00 -4.1670430379e+01 4.6828374888e+01 0.0000000000e+00 0.0000e+00 -1.0000e+00
      -11  1    4    4    0    0 +4.4092951109e+01 -5.2575384701e+01 -5.4537022944e+01 8.7650706133e+01 0.0000000000e+00 0.0000e+00 1.0000e+00
      -12  1    6    6    0    0 -7.0757221747e+01 +2.2118310399e+01 -2.9344077200e+00 7.4191743698e+01 0.0000000000e+00 0.0000e+00 1.0000e+00
       11  1    6    6    0    0 -8.7396744807e+01 -4.9335628726e+01 -5.7701479604e+01 1.1576552169e+02 0.0000000000e+00 0.0000e+00 -1.0000e+00
        5  1    3    3  501    0 +1.4117667115e+02 +2.9835946773e+01 -1.8631168548e+02 2.3570144324e+02 4.7000000000e+00 0.0000e+00 -1.0000e+00
       -5  1    5    5    0  502 -7.5740025828e+00 +4.1319874886e+01 -7.4334939539e+01 8.5512986218e+01 4.7000000000e+00 0.0000e+00 1.0000e+00
</event>
<event>
12      1 +3.3740700e+00 1.85371500e+02 7.54677100e-03 1.16286700e-01
       21 -1    0    0  501  502 +0.0000000000e+00 +0.0000000000e+00 +2.4879374909e+02 2.4879374909e+02 0.0000000000e+00 0.0000e+00 1.0000e+00
       21 -1    0    0  502  503 -0.0000000000e+00 -0.0000000000e+00 -1.3834813540e+02 1.3834813540e+02 0.0000000000e+00 0.0000e+00 1.0000e+00
       -6  2    1    2    0  503 -2.2740731060e+01 -5.9484615954e+01 +4.0835802021e+01 1.8913144332e+02 1.7334237722e+02 0.0000e+00 0.0000e+00
      -24  2    3    3    0    0 -4.5936907284e+01 -9.5221766686e+01 +2.7466532763e+00 1.3178966286e+02 7.8635785947e+01 0.0000e+00 0.0000e+00
        6  2    1    2  501    0 +2.2740731060e+01 +5.9484615954e+01 +6.9609811676e+01 1.9801044117e+02 1.7408919710e+02 0.0000e+00 0.0000e+00
       24  2    5    5    0    0 -4.5622000575e+00 +8.3662822036e+01 +9.8848730345e+01 1.5103129620e+02 7.7582855590e+01 0.0000e+00 0.0000e+00
       12  1    6    6    0    0 +1.6207225856e+01 +9.0502788859e+01 +8.4519319784e+01 1.2488772709e+02 0.0000000000e+00 0.0000e+00 -1.0000e+00
      -11  1    6    6    0    0 -2.0769425913e+01 -6.8399668228e+00 +1.4329410561e+01 2.6143569112e+01 0.0000000000e+00 0.0000e+00 1.0000e+00
      -12  1    4    4    0    0 -2.1735626552e+01 -5.3182914176e+00 -2.6043191226e+01 3.4336125210e+01 0.0000000000e+00 0.0000e+00 1.0000e+00
       11  1    4    4    0    0 -2.4201280733e+01 -8.9903475268e+01 +2.8789844503e+01 9.7453537652e+01 0.0000000000e+00 0.0000e+00 -1.0000e+00
        5  1    5    5  501    0 +2.7302931117e+01 -2.4178206083e+01 -2.9238918669e+01 4.6979144968e+01 4.7000000000e+00 0.0000e+00 -1.0000e+00
       -5  1    3    3    0  503 +2.3196176225e+01 +3.5737150732e+01 +3.8089148745e+01 5.7341780457e+01 4.7000000000e+00 0.0000e+00 1.0000e+00
</event>
<event>
12      1 +3.3740700e+00 2.01164400e+02 7.54677100e-03 1.14908200e-01
       21 -1    0    0  503  502 +0.0000000000e+00 +0.0000000000e+00 +1.2749949818e+02 1.2749949818e+02 0.0000000000e+00 0.0000e+00 -1.0000e+00
       21 -1    0    0  501  503 -0.0000000000e+00 -0.0000000000e+00 -3.9551690722e+02 3.9551690722e+02 0.0000000000e+00 0.0000e+00 1.0000e+00
        6  2    1    2  501    0 +3.3564301468e+01 -9.3599200231e+01 -2.5160526895e+02 3.2118360171e+02 1.7310783353e+02 0.0000e+00 0.0000e+00
       24  2    3    3    0    0 +2.5941390487e+01 +1.5114949564e+01 -8.1292122784e+01 1.1893243881e+02 8.1456112935e+01 0.0000e+00 0.0000e+00
       -6  2    1    2    0  502 -3.3564301468e+01 +9.3599200231e+01 -1.6412140101e+01 2.0183280369e+02 1.7487066560e+02 0.0000e+00 0.0000e+00
      -24  2    5    5    0    0 +3.7632973836e+01 +1.7735875608e+01 -2.0898460229e+01 9.7590235125e+01 8.5768912483e+01 0.0000e+00 0.0000e+00
       12  1    4    4    0    0 +9.0089813712e+00 +3.4115808451e+01 -1.6513638426e+00 3.5323889001e+01 0.0000000000e+00 0.0000e+00 -1.0000e+00
      -11  1    4    4    0    0 +1.6932409116e+01 -1.9000858887e+01 -7.9640758941e+01 8.3608549812e+01 0.0000000000e+00 0.0000e+00 1.0000e+00
      -14  1    6    6    0    0 +5.6736930495e+01 +1.7324024130e+01 -3.9221576446e+01 7.1116335345e+01 0.0000000000e+00 0.0000e+00 1.0000e+00
       13  1    6    6    0    0 -1.9103956659e+01 +4.1185147831e-01 +1.8323116217e+01 2.6473899780e+01 0.0000000000e+00 0.0000e+00 -1.0000e+00
        5  1    3    3  501    0 +7.6229109804e+00 -1.0871414980e+02 -1.7031314616e+02 2.0225116290e+02 4.7000000000e+00 0.0000e+00 -1.0000e+00
       -5  1    5    5    0  502 -7.1197275304e+01 +7.5863324623e+01 +4.4863201285e+00 1.0424256857e+02 4.7000000000e+00 0.0000e+00 1.0000e+00
</event>
<event>
12      1 +3.3740700e+00 1.85783600e+02 7.54677100e-03 1.16288000e-01
       21 -1    0    0  503  502 +0.0000000000e+00 +0.0000000000e+00 +1.1326109564e+02 1.1326109564e+02 0.0000000000e+00 0.0000e+00 -1.0000e+00
       21 -1    0    0  501  503 -0.0000000000e+00 -0.0000000000e+00 -3.1870172661e+02 3.1870172661e+02 0.0000000000e+00 0.0000e+00 -1.0000e+00
        6  2    1    2  501    0 -4.2612106651e-01 +6.6056701299e+01 -1.5449754929e+02 2.4162993296e+02 1.7364291636e+02 0.0000e+00 0.0000e+00
       24  2    3    3    0    0 -1.6213646554e+01 +3.3295545102e+01 -1.7719692625e+02 1.9850347900e+02 8.1445717178e+01 0.0000e+00 0.0000e+00
       -6  2    1    2    0  502 +4.2612106651e-01 -6.6056701299e+01 -5.0943081685e+01 1.9033288929e+02 1.7107817455e+02 0.0000e+00 0.0000e+00
      -24  2    5    5    0    0 -1.9062304936e+01 +1.2940465744e+01 +1.7373034249e+01 8.3986601886e+01 7.8873949148e+01 0.0000e+00 0.0000e+00
       12  1    4    4    0    0 +2.9539196268e+00 +4.8802448225e+01 -1.6273350872e+02 1.6991939104e+02 0.0000000000e+00 0.0000e+00 -1.0000e+00
      -11  1    4    4    0    0 -1.9167566181e+01 -1.5506903122e+01 -1.4463417532e+01 2.8584087959e+01 0.0000000000e+00 0.0000e+00 1.0000e+00
      -12  1    6    6    0    0 +2.1778748948e+01 -2.0008983054e+01 +4.0910464001e+00 2.9856489567e+01 0.0000000000e+00 0.0000e+00 1.0000e+00
       11  1    6    6    0    0 -4.0841053885e+01 +3.2949448798e+01 +1.3281987849e+01 5.4130112319e+01 0.0000000000e+00 0.0000e+00 -1.0000e+00
        5  1    3    3  501    0 +1.5787525488e+01 +3.2761156197e+01 +2.2699376961e+01 4.3126453956e+01 4.7000000000e+00 0.0000e+00 -1.0000e+00
       -5  1    5    5    0  502 +1.9488426003e+01 -7.8997167043e+01 -6.8316115933e+01 1.0634628741e+02 4.7000000000e+00 0.0000e+00 1.0000e+00
</event>
<event>
12      1 +3.3740700e+00 1.77286300e+02 7.54677100e-03 1.17052600e-01
       21 -1    0    0  501  502 +0.0000000000e+00 +0.0000000000e+00 +2.7763838708e+02 2.7763838708e+02 0.0000000000e+00 0.0000e+00 -1.0000e+00
       21 -1    0    0  502  503 -0.0000000000e+00 -0.0000000000e+00 -3.2991878384e+02 3.2991878384e+02 0.0000000000e+00 0.0000e+00 -1.0000e+00
       -6  2    1    2    0  503 -3.2555032681e+01 -1.8951587331e+01 -2.7244089270e+02 3.2488941380e+02 1.7294536238e+02 0.0000e+00 0.0000e+00
      -24  2    3    3    0    0 -7.3790368333e+01 +2.2577931410e+00 -2.4633905041e+02 2.7147043873e+02 8.6966403058e+01 0.0000e+00 0.0000e+00
        6  2    1    2  501    0 +3.2555032681e+01 +1.8951587331e+01 +2.2016049595e+02 2.8266775712e+02 1.7323805622e+02 0.0000e+00 0.0000e+00
       24  2    5    5    0    0 -2.6680316153e+01 +3.5084708987e+01 +5.6249809773e+01 1.0757376176e+02 8.0407070871e+01 0.0000e+00 0.0000e+00
       12  1    6    6    0    0 -6.2496479254e+00 +5.7828294980e+01 +2.3391849255e+01 6.2692490866e+01 0.0000000000e+00 0.0000e+00 -1.0000e+00
      -11  1    6    6    0    0 -2.0430668228e+01 -2.2743585993e+01 +3.2857960518e+01 4.4881270898e+01 0.0000000000e+00 0.0000e+00 1.0000e+00
      -14  1    4    4    0    0 -1.5942678648e+01 -1.9828685057e+01 -1.7570600552e+02 1.7753857645e+02 0.0000000000e+00 0.0000e+00 1.0000e+00
       13  1    4    4    0    0 -5.7847689684e+01 +2.2086478198e+01 -7.0633044893e+01 9.3931862283e+01 0.0000000000e+00 0.0000e+00 -1.0000e+00
        5  1    5    5  501    0 +5.9235348834e+01 -1.6133121656e+01 +1.6391068618e+02 1.7509399535e+02 4.7000000000e+00 0.0000e+00 -1.0000e+00
       -5  1    3    3    0  503 +4.1235335652e+01 -2.1209380472e+01 -2.6101842291e+01 5.3418975068e+01 4.7000000000e+00 0.0000e+00 1.0000e+00
</event>
<event>
12      1 +3.3740700e+00 2.00704100e+02 7.54677100e-03 1.14949800e-01
       21 -1    0    0  501  502 +0.0000000000e+00 +0.0000000000e+00 +1.5001921117e+02 1.5001921117e+02 0.0000000000e+00 0.0000e+00 1.0000e+00
       21 -1    0    0  502  503 -0.0000000000e+00 -0.0000000000e+00 -4.0127612055e+02 4.0127612055e+02 0.0000000000e+00 0.0000e+00 -1.0000e+00
       -6  2    1    2    0  503 -9.6916447236e+01 +1.7730257063e+01 -2.8515576706e+02 3.4774860089e+02 1.7293963738e+02 0.0000e+00 0.0000e+00
      -24  2    3    3    0    0 +1.6606306843e+01 +2.4461172401e+01 -1.3102959254e+02 1.5615087495e+02 7.9625518802e+01 0.0000e+00 0.0000e+00
        6  2    1    2  501    0 +9.6916447236e+01 -1.7730257063e+01 +3.3898857683e+01 2.0354673083e+02 1.7485702536e+02 0.0000e+00 0.0000e+00
       24  2    5    5    0    0 +4.5319709496e+01 -1.7066102551e+01 +8.5299676860e+01 1.3056181006e+02 8.6169736274e+01 0.0000e+00 0.0000e+00
       14  1    6    6    0    0 -2.5390474285e+01 -1.0666749651e+01 +2.8564902986e+01 3.9678828299e+01 0.0000000000e+00 0.0000e+00 -1.0000e+00
      -13  1    6    6    0    0 +7.0710183782e+01 -6.3993528997e+00 +5.6734773874e+01 9.0882981765e+01 0.0000000000e+00 0.0000e+00 1.0000e+00
      -14  1    4    4    0    0 +2.5064624010e+01 -2.2178770712e+01 -3.1732904841e+01 4.6120608156e+01 0.0000000000e+00 0.0000e+00 1.0000e+00
       13  1    4    4    0    0 -8.4583171668e+00 +4.6639943113e+01 -9.9296687697e+01 1.1003026679e+02 0.0000000000e+00 0.0000e+00 -1.0000e+00
        5  1    5    5  501    0 +5.1596737740e+01 -6.6415451215e-01 -5.1400819178e+01 7.2984920763e+01 4.7000000000e+00 0.0000e+00 -1.0000e+00
       -5  1    3    3    0  503 -1.1352275408e+02 -6.7309153372e+00 -1.5412617452e+02 1.9159772594e+02 4.7000000000e+00 0.0000e+00 1.0000e+00
</event>
<event>
12      1 +3.3740700e+00 1.77054500e+02 7.54677100e-03 1.17077700e-01
       21 -1    0    0  503  502 +0.0000000000e+00 +0.0000000000e+00 +4.4437355109e+02 4.4437355109e+02 0.0000000000e+00 0.0000e+00 -1.0000e+00
       21 -1    0    0  501  503 -0.0000000000e+00 -0.0000000000e+00 -8.4996225598e+01 8.4996225598e+01 0.0000000000e+00 0.0000e+00 -1.0000e+00
        6  2    1    2  501    0 -2.9883898396e+01 +2.4766862766e+01 +6.9828270814e+01 1.8997773709e+02 1.7236330326e+02 0.0000e+00 0.0000e+00
       24  2    3    3    0    0 -4.3080734233e+01 +5.8519457799e+01 +9.5811524723e+01 1.4513787055e+02 8.1269161407e+01 0.0000e+00 0.0000e+00
       -6  2    1    2    0  502 +2.9883898396e+01 -2.4766862766e+01 +2.8954905468e+02 3.3939203959e+02 1.7274795686e+02 0.0000e+00 0.0000e+00
      -24  2    5    5    0    0 -1.4204008103e+01 -4.7652468834e+01 +7.9143491318e+01 1.2315123503e+02 8.0187423203e+01 0.0000e+00 0.0000e+00
       12  1    4    4    0    0 -5.3639819074e+01 +2.3180706696e+01 +2.1658921809e+01 6.2319212504e+01 0.0000000000e+00 0.0000e+00 -1.0000e+00
      -11  1    4    4    0    0 +1.0559084840e+01 +3.5338751103e+01 +7.4152602914e+01 8.2818658049e+01 0.0000000000e+00 0.0000e+00 1.0000e+00
      -14  1    6    6    0    0 -9.8082905331e+00 -1.1531890694e+01 -1.5553022436e+01 2.1704459750e+01 0.0000000000e+00 0.0000e+00 1.0000e+00
       13  1    6    6    0    0 -4.3957175699e+00 -3.6120578140e+01 +9.4696513754e+01 1.0144677528e+02 0.0000000000e+00 0.0000e+00 -1.0000e+00
        5  1    3    3  501    0 +1.3196835837e+01 -3.3752595032e+01 -2.5983253909e+01 4.4839866539e+01 4.7000000000e+00 0.0000e+00 -1.0000e+00
       -5  1    5    5    0  502 +4.4087906499e+01 +2.2885606068e+01 +2.1040556336e+02 2.1624080456e+02 4.7000000000e+00 0.0000e+00 1.0000e+00
</event>
<event>
12      1 +3.3740700e+00 1.77639500e+02 7.54677100e-03 1.17163500e-01
       21 -1    0    0  503  502 +0.0000000000e+00 +0.0000000000e+00 +1.4941913012e+02 1.4941913012e+02 0.0000000000e+00 0.0000e+00 -1.0000e+00
       21 -1    0    0  501  503 -0.0000000000e+00 -0.0000000000e+00 -2.2248419594e+02 2.2248419594e+02 0.0000000000e+00 0.0000e+00 -1.0000e+00
        6  2    1    2  501    0 -3.4409644211e+01 -2.1041703544e+01 -8.9521871490e+01 1.9350318855e+02 1.6674094158e+02 0.0000e+00 0.0000e+00
       24  2    3    3    0    0 +4.3212792263e+01 -3.5042212097e+00 -5.4951479758e+01 1.0661240701e+02 8.0417132628e+01 0.0000e+00 0.0000e+00
       -6  2    1    2    0  502 +3.4409644211e+01 +2.1041703544e+01 +1.6456805673e+01 1.7840013751e+02 1.7300001650e+02 0.0000e+00 0.0000e+00
      -24  2    5    5    0    0 +8.6430860464e+01 +2.6040959662e+01 +2.9333540603e+01 1.2437144324e+02 8.0370231235e+01 0.0000e+00 0.0000e+00
       14  1    4    4    0    0 +5.3185212658e+01 -3.2812919501e-01 -2.6265452886e+00 5.3251039937e+01 0.0000000000e+00 0.0000e+00 -1.0000e+00
      -13  1    4    4    0    0 -9.9724203947e+00 -3.1760920147e+00 -5.2324934470e+01 5.3361367076e+01 0.0000000000e+00 0.0000e+00 1.0000e+00
      -12  1    6    6    0    0 +4.1140856068e+01 +1.6190575597e+01 +5.5648247657e+01 7.1073428533e+01 0.0000000000e+00 0.0000e+00 1.0000e+00
       11  1    6    6    0    0 +4.5290004397e+01 +9.8503840649e+00 -2.6314707053e+01 5.3298014708e+01 0.0000000000e+00 0.0000e+00 -1.0000e+00
        5  1    3    3  501    0 -7.7622436474e+01 -1.7537482335e+01 -3.4570391732e+01 8.6890781533e+01 4.7000000000e+00 0.0000e+00 -1.0000e+00
       -5  1    5    5    0  502 -5.2021216253e+01 -4.9992561171e+00 -1.2876734931e+01 5.4028694271e+01 4.7000000000e+00 0.0000e+00 1.0000e+00
</event>
<event>
12      1 +3.3740700e+00 1.83492700e+02 7.54677100e-03 1.16469400e-01
       21 -1    0    0  503  502 +0.0000000000e+00 +0.0000000000e+00 +4.6855337894e+02 4.6855337894e+02 0.0000000000e+00 0.0000e+00 -1.0000e+00
       21 -1    0    0  501  503 -0.0000000000e+00 -0.0000000000e+00 -8.1028636548e+01 8.1028636548e+01 0.0000000000e+00 0.0000e+00 -1.0000e+00
        6  2    1    2  501    0 -5.0877955105e+01 -2.9486729374e+01 +9.9881383192e+01 2.0891593744e+02 1.7381468488e+02 0.0000e+00 0.0000e+00
       24  2    3    3    0    0 +5.8502673458e+00 -3.2538839177e+00 -1.1151075766e+01 8.1414759617e+01 8.0369168243e+01 0.0000e+00 0.0000e+00
       -6  2    1    2    0  502 +5.0877955105e+01 +2.9486729374e+01 +2.8764335920e+02 3.4066607805e+02 1.7279074373e+02 0.0000e+00 0.0000e+00
      -24  2    5    5    0    0 -3.0025042649e+01 +4.8158731480e+01 +1.4960165356e+02 1.7950919423e+02 8.1376467484e+01 0.0000e+00 0.0000e+00
       14  1    4    4    0    0 -3.2496305720e+01 +1.7638750866e+01 -5.5124790899e+00 3.7383456813e+01 0.0000000000e+00 0.0000e+00 -1.0000e+00
      -13  1    4    4    0    0 +3.8346573066e+01 -2.0892634784e+01 -5.6385966758e+00 4.4031302804e+01 0.0000000000e+00 0.0000e+00 1.0000e+00
      -12  1    6    6    0    0 -5.1048139647e+01 +7.7313215166e+00 +6.1319399990e+01 8.0160805316e+01 0.0000000000e+00 0.0000e+00 1.0000e+00
       11  1    6    6    0    0 +2.1023096997e+01 +4.0427409964e+01 +8.8282253572e+01 9.9348388912e+01 0.0000000000e+00 0.0000e+00 -1.0000e+00
        5  1    3    3  501    0 -5.6728222450e+01 -2.6232845456e+01 +1.1103245896e+02 1.2750117782e+02 4.7000000000e+00 0.0000e+00 -1.0000e+00
       -5  1    5    5    0  502 +8.0902997754e+01 -1.8672002106e+01 +1.3804170564e+02 1.6115688383e+02 4.7000000000e+00 0.0000e+00 1.0000e+00
</event>
<event>
12      1 +3.3740700e+00 1.77450100e+02 7.54677100e-03 1.17044100e-01
       21 -1    0    0  503  502 +0.0000000000e+00 +0.0000000000e+00 +9.9323452677e+01 9.9323452677e+01 0.0000000000e+00 0.0000e+00 -1.0000e+00
       21 -1    0    0  501  503 -0.0000000000e+00 -0.0000000000e+00 -4.0056264377e+02 4.0056264377e+02 0.0000000000e+00 0.0000e+00 -1.0000e+00
        6  2    1    2  501    0 -3.1831071794e+01 +1.1283028421e+01 -2.6528327636e+02 3.1882989456e+02 1.7359942708e+02 0.0000e+00 0.0000e+00
       24  2    3    3    0    0 -4.5088057828e+01 +5.0384888887e+01 -8.8296090471e+01 1.3702984742e+02 8.0058787796e+01 0.0000e+00 0.0000e+00
       -6  2    1    2    0  502 +3.1831071794e+01 -1.1283028421e+01 -3.5955914726e+01 1.8105620189e+02 1.7420676386e+02 0.0000e+00 0.0000e+00
      -24  2    5    5    0    0 +3.1966735282e+01 +5.5958581681e+01 +1.5746927422e+01 9.6104883946e+01 6.9533790107e+01 0.0000e+00 0.0000e+00
       12  1    4    4    0    0 -6.6150366679e+01 +3.0898212854e+01 -7.7223688480e+01 1.0627355566e+02 0.0000000000e+00 0.0000e+00 -1.0000e+00
      -11  1    4    4    0    0 +2.1062308851e+01 +1.9486676034e+01 -1.1072401991e+01 3.0756291760e+01 0.0000000000e+00 0.0000e+00 1.0000e+00
      -14  1    6    6    0    0 +5.2537561335e+01 +4.4083308990e+01 +1.8951925535e+00 6.8608492458e+01 0.0000000000e+00 0.0000e+00 1.0000e+00
       13  1    6    6    0    0 -2.0570826053e+01 +1.1875272691e+01 +1.3851734868e+01 2.7496391488e+01 0.0000000000e+00 0.0000e+00 -1.0000e+00
        5  1    3    3  501    0 +1.3256986034e+01 -3.9101860466e+01 -1.7698718589e+02 1.8180004714e+02 4.7000000000e+00 0.0000e+00 -1.0000e+00
       -5  1    5    5    0  502 -1.3566348805e-01 -6.7241610102e+01 -5.1702842148e+01 8.4951317941e+01 4.7000000000e+00 0.0000e+00 1.0000e+00
</event>
<event>
12      1 +3.3740700e+00 1.85373300e+02 7.54677100e-03 1.16303800e-01
       21 -1    0    0  501  502 +0.0000000000e+00 +0.0000000000e+00 +1.0810227245e+02 1.0810227245e+02 0.0000000000e+00 0.0000e+00 1.0000e+00
       21 -1    0    0  502  503 -0.0000000000e+00 -0.0000000000e+00 -4.7322719852e+02 4.7322719852e+02 0.0000000000e+00 0.0000e+00 -1.0000e+00
       -6  2    1    2    0  503 +4.9643645216e+01 +4.0446282720e+01 -3.5088939159e+02 3.9684584224e+02 1.7396224900e+02 0.0000e+00 0.0000e+00
      -24  2    3    3    0    0 +1.8873454558e+01 -4.5362005414e+01 -1.5437482114e+02 1.8016650925e+02 7.8831889684e+01 0.0000e+00 0.0000e+00
        6  2    1    2  501    0 -4.9643645216e+01 -4.0446282720e+01 -1.4235534480e+01 1.8448362873e+02 1.7242727606e+02 0.0000e+00 0.0000e+00
       24  2    5    5    0    0 +2.9959024941e+01 -2.1727563088e+01 -3.5481244225e+01 9.9864211670e+01 8.5698960948e+01 0.0000e+00 0.0000e+00
       12  1    6    6    0    0 +1.9856534347e+01 -4.8379304606e+01 -4.5835602384e+01 6.9539496089e+01 0.0000000000e+00 0.0000e+00 -1.0000e+00
      -11  1    6    6    0    0 +1.0102490595e+01 +2.6651741519e+01 +1.0354358159e+01 3.0324715581e+01 0.0000000000e+00 0.0000e+00 1.0000e+00
      -12  1    4    4    0    0 -1.2386574617e+01 -3.7103011660e+01 -1.3893522589e+02 1.4433661247e+02 0.0000000000e+00 0.0000e+00 1.0000e+00
       11  1    4    4    0    0 +3.1260029175e+01 -8.2589937538e+00 -1.5439595244e+01 3.5829896778e+01 0.0000000000e+00 0.0000e+00 -1.0000e+00
        5  1    5    5  501    0 -7.9602670158e+01 -1.8718719632e+01 +2.1245709744e+01 8.4619417059e+01 4.7000000000e+00 0.0000e+00 -1.0000e+00
       -5  1    3    3    0  503 +3.0770190658e+01 +8.5808288134e+01 -1.9651457045e+02 2.1667933299e+02 4.7000000000e+00 0.0000e+00 1.0000e+00
</event>
<event>
12      1 +3.3740700e+00 1.73771000e+02 7.54677100e-03 1.17430000e-01
       21 -1    0    0  501  502 +0.0000000000e+00 +0.0000000000e+00 +4.1711215321e+02 4.1711215321e+02 0.0000000000e+00 0.0000e+00 -1.0000e+00
       21 -1    0    0  502  503 -0.0000000000e+00 -0.0000000000e+00 -8.2092764584e+01 8.2092764584e+01 0.0000000000e+00 0.0000e+00 -1.0000e+00
       -6  2    1    2    0  503 -8.8562394664e+00 +7.6198252348e+00 +7.8826420117e+01 1.8963876247e+02 1.7208358727e+02 0.0000e+00 0.0000e+00
      -24  2    3    3    0    0 -3.9400882182e+01 +6.0348206276e+01 +3.8173549948e+01 1.1623574333e+02 8.2820242655e+01 0.0000e+00 0.0000e+00
        6  2    1    2  501    0 +8.8562394664e+00 -7.6198252348e+00 +2.5619296851e+02 3.0956615533e+02 1.7337783220e+02 0.0000e+00 0.0000e+00
       24  2    5    5    0    0 +3.7142481899e+01 -6.2871949288e+01 +1.3907932921e+02 1.7693658384e+02 8.1431252716e+01 0.0000e+00 0.0000e+00
       12  1    6    6    0    0 +5.9246367874e+01 -3.1801495825e+01 +6.4504552308e+01 9.3178884471e+01 0.0000000000e+00 0.0000e+00 -1.0000e+00
      -11  1    6    6    0    0 -2.2103885974e+01 -3.1070453463e+01 +7.4574776907e+01 8.3757699373e+01 0.0000000000e+00 0.0000e+00 1.0000e+00
      -12  1    4    4    0    0 -3.6395230658e+01 +7.9194334363e+01 +1.9041856141e+01 8.9212934573e+01 0.0000000000e+00 0.0000e+00 1.0000e+00
       11  1    4    4    0    0 -3.0056515236e+00 -1.8846128087e+01 +1.9131693806e+01 2.7022808752e+01 0.0000000000e+00 0.0000e+00 -1.0000e+00
        5  1    5    5  501    0 -2.8286242433e+01 +5.5252124053e+01 +1.1711363929e+02 1.3262957148e+02 4.7000000000e+00 0.0000e+00 -1.0000e+00
       -5  1    3    3    0  503 +3.0544642715e+01 -5.2728381041e+01 +4.0652870169e+01 7.3403019140e+01 4.7000000000e+00 0.0000e+00 1.0000e+00
</event>
<event>
12      1 +3.3740700e+00 3.33782900e+02 7.54677100e-03 1.06957800e-01
       21 -1    0    0  501  502 +0.0000000000e+00 +0.0000000000e+00 +3.9926603055e+02 3.9926603055e+02 0.0000000000e+00 0.0000e+00 1.0000e+00
       21 -1    0    0  502  503 -0.0000000000e+00 -0.0000000000e+00 -2.8243172504e+02 2.8243172504e+02 0.0000000000e+00 0.0000e+00 1.0000e+00
       -6  2    1    2    0  503 +4.4816926780e+01 -2.8151132723e+02 +1.7043867203e+01 3.3421780879e+02 1.7364868563e+02 0.0000e+00 0.0000e+00
      -24  2    3    3    0    0 -2.0279049176e+01 -1.3741197856e+02 -3.8369005748e+01 1.6660281883e+02 8.3612361234e+01 0.0000e+00 0.0000e+00
        6  2    1    2  501    0 -4.4816926780e+01 +2.8151132723e+02 +9.9790438304e+01 3.4747994680e+02 1.7183421534e+02 0.0000e+00 0.0000e+00
       24  2    5    5    0    0 -8.5146545618e+01 +1.3352574045e+02 +7.1194996251e+01 1.9138381821e+02 8.0498327871e+01 0.0000e+00 0.0000e+00
       14  1    6    6    0    0 +1.0432641121e+01 +4.7763754673e+01 +2.5011201353e+01 5.4916085570e+01 0.0000000000e+00 0.0000e+00 -1.0000e+00
      -13  1    6    6    0    0 -9.5579186739e+01 +8.5761985773e+01 +4.6183794899e+01 1.3646773264e+02 0.0000000000e+00 0.0000e+00 1.0000e+00
      -12  1    4    4    0    0 +1.1475757661e+01 -3.1906181483e+01 -4.4857822067e+01 5.6230966836e+01 0.0000000000e+00 0.0000e+00 1.0000e+00
       11  1    4    4    0    0 -3.1754806838e+01 -1.0550579708e+02 +6.4888163189e+00 1.1037185199e+02 0.0000000000e+00 0.0000e+00 -1.0000e+00
        5  1    5    5  501    0 +4.0329618838e+01 +1.4798558679e+02 +2.8595442053e+01 1.5609612858e+02 4.7000000000e+00 0.0000e+00 -1.0000e+00
       -5  1    3    3    0  503 +6.5095975956e+01 -1.4409934867e+02 +5.5412872951e+01 1.6761498997e+02 4.7000000000e+00 0.0000e+00 1.0000e+00
</event>
<event>
12      1 +3.3740700e+00 2.40157300e+02 7.54677100e-03 1.12078300e-01
       21 -1    0    0  503  502 +0.0000000000e+00 +0.0000000000e+00 +2.8210536491e+02 2.8210536491e+02 0.0000000000e+00 0.0000e+00 -1.0000e+00
       21 -1    0    0  501  503 -0.0000000000e+00 -0.0000000000e+00 -2.7892624713e+02 2.7892624713e+02 0.0000000000e+00 0.0000e+00 -1.0000e+00
        6  2    1    2  501    0 +9.8640333915e+01 -1.3756962463e+02 -1.4858203197e+02 2.8240418878e+02 1.7035312889e+02 0.0000e+00 0.0000e+00
       24  2    3    3    0    0 -6.2480785733e+00 -8.7559695272e+01 -4.9236478622e+01 1.2945255892e+02 8.1412501876e+01 0.0000e+00 0.0000e+00
       -6  2    1    2    0  502 -9.8640333915e+01 +1.3756962463e+02 +1.5176114974e+02 2.7862742326e+02 1.6107910270e+02 0.0000e+00 0.0000e+00
      -24  2    5    5    0    0 +9.2394519568e+00 +5.8982444975e+01 +7.2894758560e+01 1.2352748559e+02 7.9881772538e+01 0.0000e+00 0.0000e+00
       12  1    4    4    0    0 +2.0301809828e+01 -1.5104771358e+01 +1.4678870180e+01 2.9253834446e+01 0.0000000000e+00 0.0000e+00 -1.0000e+00
      -11  1    4    4    0    0 -2.6549888401e+01 -7.2454923914e+01 -6.3915348802e+01 1.0019872447e+02 0.0000000000e+00 0.0000e+00 1.0000e+00
      -14  1    6    6    0    0 +2.4450408816e+01 -4.5630972821e+00 +4.7129960494e+01 5.3290501257e+01 0.0000000000e+00 0.0000e+00 1.0000e+00
       13  1    6    6    0    0 -1.5210956859e+01 +6.3545542257e+01 +2.5764798066e+01 7.0236984337e+01 0.0000000000e+00 0.0000e+00 -1.0000e+00
        5  1    3    3  501    0 +1.0488841249e+02 -5.0009929355e+01 -9.9345553344e+01 1.5295162986e+02 4.7000000000e+00 0.0000e+00 -1.0000e+00
       -5  1    5    5    0  502 -1.0787978587e+02 +7.8587179651e+01 +7.8866391179e+01 1.5509993766e+02 4.7000000000e+00 0.0000e+00 1.0000e+00
</event>
<event>
12      1 +3.3740700e+00 2.17770400e+02 7.54677100e-03 1.13564800e-01
       21 -1    0    0  501  502 +0.0000000000e+00 +0.0000000000e+00 +1.0174543131e+02 1.0174543131e+02 0.0000000000e+00 0.0000e+00 1.0000e+00
       21 -1    0    0  502  503 -0.0000000000e+00 -0.0000000000e+00 -4.7775786392e+02 4.7775786392e+02 0.0000000000e+00 0.0000e+00 1.0000e+00
       -6  2    1    2    0  503 +1.2818278484e+02 +3.1846067578e+01 -2.3503445770e+02 3.2008332418e+02 1.7253156164e+02 0.0000e+00 0.0000e+00
      -24  2    3    3    0    0 +1.3631783510e+02 -2.4993584671e+01 -1.7152479362e+02 2.3433664762e+02 7.9282268827e+01 0.0000e+00 0.0000e+00
        6  2    1    2  501    0 -1.2818278484e+02 -3.1846067578e+01 -1.4097797491e+02 2.5941997104e+02 1.7314425666e+02 0.0000e+00 0.0000e+00
       24  2    5    5    0    0 -8.7007133103e+01 +1.6164295766e+01 -2.3272591749e+01 1.2571478599e+02 8.6203643896e+01 0.0000e+00 0.0000e+00
       14  1    6    6    0    0 +1.6227986208e+01 -5.5772524591e+00 -8.6179431825e+00 1.9202141184e+01 0.0000000000e+00 0.0000e+00 -1.0000e+00
      -13  1    6    6    0    0 -1.0323511931e+02 +2.1741548225e+01 -1.4654648567e+01 1.0651264480e+02 0.0000000000e+00 0.0000e+00 1.0000e+00
      -12  1    4    4    0    0 +1.2307073175e+02 -4.8786169647e+01 -1.4433407547e+02 1.9585408013e+02 0.0000000000e+00 0.0000e+00 1.0000e+00
       11  1    4    4    0    0 +1.3247103351e+01 +2.3792584976e+01 -2.7190718152e+01 3.8482567490e+01 0.0000000000e+00 0.0000e+00 -1.0000e+00
        5  1    5    5  501    0 -4.1175651741e+01 -4.8010363343e+01 -1.1770538316e+02 1.3370518506e+02 4.7000000000e+00 0.0000e+00 -1.0000e+00
       -5  1    3    3    0  503 -8.1350502521e+00 +5.6839652248e+01 -6.3509664078e+01 8.5746676563e+01 4.7000000000e+00 0.0000e+00 1.0000e+00
</event>
<event>
12      1 +3.3740700e+00 2.57368000e+02 7.54677100e-03 1.10888000e-01
       21 -1    0    0  503  502 +0.0000000000e+00 +0.0000000000e+00 +3.7197806114e+02 3.7197806114e+02 0.0000000000e+00 0.0000e+00 1.0000e+00
       21 -1    0    0  501  503 -0.0000000000e+00 -0.0000000000e+00 -1.7741415127e+02 1.7741415127e+02 0.0000000000e+00 0.0000e+00 -1.0000e+00
        6  2    1    2  501    0 +1.6794318128e+02 -8.6986330500e+01 +9.8302525038e+01 2.7461129222e+02 1.7313706003e+02 0.0000e+00 0.0000e+00
       24  2    3    3    0    0 +5.4178298745e+01 -9.4188918800e+01 +8.6359468433e+01 1.5989837936e+02 7.9389504692e+01 0.0000e+00 0.0000e+00
       -6  2    1    2    0  502 -1.6794318128e+02 +8.6986330500e+01 +9.6261384840e+01 2.7478092019e+02 1.7454731753e+02 0.0000e+00 0.0000e+00
      -24  2    5    5    0    0 -7.4884400063e+00 +2.0285555364e+01 +3.0474557311e+01 8.8918836705e+01 8.0686308550e+01 0.0000e+00 0.0000e+00
       12  1    4    4    0    0 -1.3171003092e+01 -5.7449345134e+00 +3.4212498410e+01 3.7107608956e+01 0.0000000000e+00 0.0000e+00 -1.0000e+00
      -11  1    4    4    0    0 +6.7349301837e+01 -8.8443984287e+01 +5.2146970023e+01 1.2279077041e+02 0.0000000000e+00 0.0000e+00 1.0000e+00
      -12  1    6    6    0    0 +2.6539528081e+00 +5.0474673279e+01 +2.5741364029e+01 5.6721723618e+01 0.0000000000e+00 0.0000e+00 1.0000e+00
       11  1    6    6    0    0 -1.0142392814e+01 -3.0189117915e+01 +4.7331932822e+00 3.2197113087e+01 0.0000000000e+00 0.0000e+00 -1.0000e+00
        5  1    3    3  501    0 +1.1376488253e+02 +7.2025883007e+00 +1.1943056605e+01 1.1471291286e+02 4.7000000000e+00 0.0000e+00 -1.0000e+00
       -5  1    5    5    0  502 -1.6045474127e+02 +6.6700775136e+01 +6.5786827528e+01 1.8586208348e+02 4.7000000000e+00 0.0000e+00 1.0000e+00
</event>
<event>
12      1 +3.3740700e+00 2.26741100e+02 7.54677100e-03 1.12930900e-01
       21 -1    0    0  501  502 +0.0000000000e+00 +0.0000000000e+00 +4.1805635049e+02 4.1805635049e+02 0.0000000000e+00 0.0000e+00 -1.0000e+00
       21 -1    0    0  502  503 -0.0000000000e+00 -0.0000000000e+00 -1.3002777185e+02 1.3002777185e+02 0.0000000000e+00 0.0000e+00 1.0000e+00
       -6  2    1    2    0  503 -1.3877425338e+01 +1.4336561770e+02 +2.1188368309e+02 3.0889889441e+02 1.7256172384e+02 0.0000e+00 0.0000e+00
      -24  2    3    3    0    0 -4.0343959998e+01 +2.1075472665e+01 +1.2889576639e+02 1.5868424350e+02 8.0590073124e+01 0.0000e+00 0.0000e+00
        6  2    1    2  501    0 +1.3877425338e+01 -1.4336561770e+02 +7.6144895554e+01 2.3918522793e+02 1.7511494759e+02 0.0000e+00 0.0000e+00
       24  2    5    5    0    0 -3.6433528694e+01 -1.2251976565e+02 +2.1386841899e+01 1.6181419922e+02 9.6891398356e+01 0.0000e+00 0.0000e+00
       12  1    6    6    0    0 -6.2013628848e+01 -4.0757927868e+01 +1.6401032232e+01 7.5999294110e+01 0.0000000000e+00 0.0000e+00 -1.0000e+00
      -11  1    6    6    0    0 +2.5580100154e+01 -8.1761837781e+01 +4.9858096663e+00 8.5814905111e+01 0.0000000000e+00 0.0000e+00 1.0000e+00
      -12  1    4    4    0    0 -2.0572249147e+01 +6.0642032814e+00 -5.3971968657e+00 2.2116096636e+01 0.0000000000e+00 0.0000e+00 1.0000e+00
       11  1    4    4    0    0 -1.9771710851e+01 +1.5011269383e+01 +1.3429296325e+02 1.3656814687e+02 0.0000000000e+00 0.0000e+00 -1.0000e+00
        5  1    5    5  501    0 +5.0310954032e+01 -2.0845852051e+01 +5.4758053655e+01 7.7371028708e+01 4.7000000000e+00 0.0000e+00 -1.0000e+00
       -5  1    3    3    0  503 +2.6466534660e+01 +1.2229014503e+02 +8.2987916700e+01 1.5021465091e+02 4.7000000000e+00 0.0000e+00 1.0000e+00
</event>
<event>
12      1 +3.3740700e+00 2.00771700e+02 7.54677100e-03 1.15055300e-01
       21 -1    0    0  501  502 +0.0000000000e+00 +0.0000000000e+00 +6.0669887213e+01 6.0669887213e+01 0.0000000000e+00 0.0000e+00 1.0000e+00
       21 -1    0    0  502  503 -0.0000000000e+00 -0.0000000000e+00 -8.9052380168e+02 8.9052380168e+02 0.0000000000e+00 0.0000e+00 1.0000e+00
       -6  2    1    2    0  503 -6.1554774080e+01 +6.1307909724e+01 -6.7136554039e+02 7.0074314786e+02 1.8100171393e+02 0.0000e+00 0.0000e+00
      -24  2    3    3    0    0 -4.9682766611e+00 +9.8664182163e+01 -3.6624812218e+02 3.8814715992e+02 8.2226675356e+01 0.0000e+00 0.0000e+00
        6  2    1    2  501    0 +6.1554774080e+01 -6.1307909724e+01 -1.5848837408e+02 2.5045054103e+02 1.7337606172e+02 0.0000e+00 0.0000e+00
       24  2    5    5    0    0 -1.6721218397e+01 -4.9414970239e+01 -3.1484368067e+01 1.0071517263e+02 8.0192531678e+01 0.0000e+00 0.0000e+00
       14  1    6    6    0    0 +9.5491314231e+00 -2.8896659522e+01 -5.2946418239e+01 6.1069845643e+01 0.0000000000e+00 0.0000e+00 -1.0000e+00
      -13  1    6    6    0    0 -2.6270349820e+01 -2.0518310716e+01 +2.1462050172e+01 3.9645326987e+01 0.0000000000e+00 0.0000e+00 1.0000e+00
      -14  1    4    4    0    0 +7.1566950179e+00 +8.3561440208e+00 -1.8459075345e+02 1.8491833247e+02 0.0000000000e+00 0.0000e+00 1.0000e+00
       13  1    4    4    0    0 -1.2124971679e+01 +9.0308038142e+01 -1.8165736873e+02 2.0322882745e+02 0.0000000000e+00 0.0000e+00 -1.0000e+00
        5  1    5    5  501    0 +7.8275992478e+01 -1.1892939485e+01 -1.2700400601e+02 1.4973536840e+02 4.7000000000e+00 0.0000e+00 -1.0000e+00
       -5  1    3    3    0  503 -5.6586497419e+01 -3.7356272439e+01 -3.0511741821e+02 3.1259598794e+02 4.7000000000e+00 0.0000e+00 1.0000e+00
</event>
<event>
12      1 +3.3740700e+00 1.81404400e+02 7.54677100e-03 1.16651800e-01
       21 -1    0    0  503  502 +0.0000000000e+00 +0.0000000000e+00 +4.4974253967e+02 4.4974253967e+02 0.0000000000e+00 0.0000e+00 1.0000e+00
       21 -1    0    0  501  503 -0.0000000000e+00 -0.0000000000e+00 -8.9740399165e+01 8.9740399165e+01 0.0000000000e+00 0.0000e+00 -1.0000e+00
        6  2    1    2  501    0 +4.7446020852e+01 -3.0203530923e+01 +6.3580175301e+01 1.9195808624e+02 1.7216878349e+02 0.0000e+00 0.0000e+00
       24  2    3    3    0    0 +6.8789640943e+01 +2.1920293795e+01 +7.9131272559e+01 1.3333752801e+02 7.9401663063e+01 0.0000e+00 0.0000e+00
       -6  2    1    2    0  502 -4.7446020852e+01 +3.0203530923e+01 +2.9642196521e+02 3.4752485259e+02 1.7246496322e+02 0.0000e+00 0.0000e+00
      -24  2    5    5    0    0 -5.4793934228e+01 -3.2383557804e+01 +1.1043836652e+02 1.5109897730e+02 8.1136909580e+01 0.0000e+00 0.0000e+00
       12  1    4    4    0    0 +5.8263271193e+01 +3.7026628564e+01 +2.0693838783e+01 7.2068127189e+01 0.0000000000e+00 0.0000e+00 -1.0000e+00
      -11  1    4    4    0    0 +1.0526369750e+01 -1.5106334769e+01 +5.8437433777e+01 6.1269400818e+01 0.0000000000e+00 0.0000e+00 1.0000e+00
      -14  1    6    6    0    0 -3.5441863294e+01 -1.8046520320e+01 +1.1905282536e+02 1.2552042780e+02 0.0000000000e+00 0.0000e+00 1.0000e+00
       13  1    6    6    0    0 -1.9352070934e+01 -1.4337037484e+01 -8.6144588376e+00 2.5578549496e+01 0.0000000000e+00 0.0000e+00 -1.0000e+00
        5  1    3    3  501    0 -2.1343620091e+01 -5.2123824719e+01 -1.5551097259e+01 5.8620558235e+01 4.7000000000e+00 0.0000e+00 -1.0000e+00
       -5  1    5    5    0  502 +7.3479133762e+00 +6.2587088728e+01 +1.8598359868e+02 1.9642587530e+02 4.7000000000e+00 0.0000e+00 1.0000e+00
</event>
<event>
12      1 +3.3740700e+00 2.30560400e+02 7.54677100e-03 1.12706200e-01
       21 -1    0    0  501  502 +0.0000000000e+00 +0.0000000000e+00 +6.6707028178e+02 6.6707028178e+02 0.0000000000e+00 0.0000e+00 1.0000e+00
       21 -1    0    0  502  503 -0.0000000000e+00 -0.0000000000e+00 -2.2520805360e+02 2.2520805360e+02 0.0000000000e+00 0.0000e+00 -1.0000e+00
       -6  2    1    2    0  503 +1.4980572628e+02 +2.9361411483e+01 +5.8072034233e+02 6.2313214557e+02 1.6659443788e+02 0.0000e+00 0.0000e+00
      -24  2    3    3    0    0 +4.6581067760e+01 -1.8276160796e+01 +1.6614056596e+02 1.9322151603e+02 8.5017954984e+01 0.0000e+00 0.0000e+00
        6  2    1    2  501    0 -1.4980572628e+02 -2.9361411483e+01 -1.3885811415e+02 2.6914618981e+02 1.7278381728e+02 0.0000e+00 0.0000e+00
       24  2    5    5    0    0 -1.2076955736e+02 -6.1197349151e+01 -4.1861168893e+01 1.6290531527e+02 8.0345396607e+01 0.0000e+00 0.0000e+00
       12  1    6    6    0    0 -9.5315737705e+01 -7.6129949444e+00 -1.1630587691e+01 9.6324026683e+01 0.0000000000e+00 0.0000e+00 -1.0000e+00
      -11  1    6    6    0    0 -2.5453819652e+01 -5.3584354207e+01 -3.0230581202e+01 6.6581288591e+01 0.0000000000e+00 0.0000e+00 1.0000e+00
      -12  1    4    4    0    0 +3.0252000845e+01 -5.9211363076e+00 +1.6966616852e+02 1.7244376519e+02 0.0000000000e+00 0.0000e+00 1.0000e+00
       11  1    4    4    0    0 +1.6329066915e+01 -1.2355024489e+01 -3.5256025624e+00 2.0777750838e+01 0.0000000000e+00 0.0000e+00 -1.0000e+00
        5  1    5    5  501    0 -2.9036168928e+01 +3.1835937669e+01 -9.6996945261e+01 1.0624087454e+02 4.7000000000e+00 0.0000e+00 -1.0000e+00
       -5  1    3    3    0  503 +1.0322465852e+02 +4.7637572279e+01 +4.1457977637e+02 4.2991062954e+02 4.7000000000e+00 0.0000e+00 1.0000e+00
</event>
<event>
12      1 +3.3740700e+00 1.85911000e+02 7.54677100e-03 1.16222400e-01
       21 -1    0    0  501  502 +0.0000000000e+00 +0.0000000000e+00 +1.5444342146e+02 1.5444342146e+02 0.0000000000e+00 0.0000e+00 -1.0000e+00
       21 -1    0    0  502  503 -0.0000000000e+00 -0.0000000000e+00 -2.7801701033e+02 2.7801701033e+02 0.0000000000e+00 0.0000e+00 -1.0000e+00
       -6  2    1    2    0  503 +8.8381106008e+00 +7.0390846172e+01 -1.5739758382e+02 2.4359170266e+02 1.7184276182e+02 0.0000e+00 0.0000e+00
      -24  2    3    3    0    0 -3.2460974496e+01 -1.3142880921e+01 -7.1268906741e+01 1.1661242480e+02 8.5397601637e+01 0.0000e+00 0.0000e+00
        6  2    1    2  501    0 -8.8381106008e+00 -7.0390846172e+01 +3.3823994943e+01 1.8886872913e+02 1.7173919409e+02 0.0000e+00 0.0000e+00
       24  2    5    5    0    0 -3.4189261297e+01 +1.2381166741e+01 +5.1440016909e+01 1.0040234460e+02 7.8181561655e+01 0.0000e+00 0.0000e+00
       14  1    6    6    0    0 -4.4279815827e+01 -2.2261946285e+01 +2.3971519349e+01 5.5053883441e+01 0.0000000000e+00 0.0000e+00 -1.0000e+00
      -13  1    6    6    0    0 +1.0090554530e+01 +3.4643113026e+01 +2.7468497560e+01 4.5348461154e+01 0.0000000000e+00 0.0000e+00 1.0000e+00
      -12  1    4    4    0    0 +9.9270203815e+00 -2.7066933889e+01 +4.0076076311e+00 2.9107139377e+01 0.0000000000e+00 0.0000e+00 1.0000e+00
       11  1    4    4    0    0 -4.2387994878e+01 +1.3924052968e+01 -7.5276514373e+01 8.7505285423e+01 0.0000000000e+00 0.0000e+00 -1.0000e+00
        5  1    5    5  501    0 +2.5351150697e+01 -8.2772012913e+01 -1.7616021966e+01 8.8466384538e+01 4.7000000000e+00 0.0000e+00 -1.0000e+00
       -5  1    3    3    0  503 +4.1299085097e+01 +8.3533727093e+01 -8.6128677075e+01 1.2697927786e+02 4.7000000000e+00 0.0000e+00 1.0000e+00
</event>
<event>
12      1 +3.3740700e+00 1.88459700e+02 7.54677100e-03 1.16011600e-01
       21 -1    0    0  503  502 +0.0000000000e+00 +0.0000000000e+00 +2.4914376881e+02 2.4914376881e+02 0.0000000000e+00 0.0000e+00 -1.0000e+00
       21 -1    0    0  501  503 -0.0000000000e+00 -0.0000000000e+00 -1.5922086423e+02 1.5922086423e+02 0.0000000000e+00 0.0000e+00 1.0000e+00
        6  2    1    2  501    0 +6.8363774010e+01 -2.1874214849e+01 -2.2641820799e+01 1.8981497017e+02 1.7425551348e+02 0.0000e+00 0.0000e+00
       24  2    3    3    0    0 +4.2939849645e+01 -2.6560961162e+01 -8.1509524293e+01 1.2534918051e+02 8.0742177076e+01 0.0000e+00 0.0000e+00
       -6  2    1    2    0  502 -6.8363774010e+01 +2.1874214849e+01 +1.1256472538e+02 2.1854966288e+02 1.7303482560e+02 0.0000e+00 0.0000e+00
      -24  2    5    5    0    0 -4.3498280143e+01 +1.6399168287e+01 +1.4787543761e+02 1.7476375969e+02 8.0710554167e+01 0.0000e+00 0.0000e+00
       12  1    4    4    0    0 +1.8653104595e+01 -4.8917303898e+01 -7.5377203009e+01 9.1774526232e+01 0.0000000000e+00 0.0000e+00 -1.0000e+00
      -11  1    4    4    0    0 +2.4286745050e+01 +2.2356342735e+01 -6.1323212835e+00 3.3574654279e+01 0.0000000000e+00 0.0000e+00 1.0000e+00
      -12  1    6    6    0    0 -6.2560300628e+00 +3.4114832354e+01 +1.2018343936e+02 1.2508804417e+02 0.0000000000e+00 0.0000e+00 1.0000e+00
       11  1    6    6    0    0 -3.7242250080e+01 -1.7715664067e+01 +2.7691998255e+01 4.9675715513e+01 0.0000000000e+00 0.0000e+00 -1.0000e+00
        5  1    3    3  501    0 +2.5423924364e+01 +4.6867463132e+00 +5.8867703494e+01 6.4465789654e+01 4.7000000000e+00 0.0000e+00 -1.0000e+00
       -5  1    5    5    0  502 -2.4865493867e+01 +5.4750465621e+00 -3.5310712233e+01 4.3785903194e+01 4.7000000000e+00 0.0000e+00 1.0000e+00
</event>
<event>
12      1 +3.3740700e+00 1.99725400e+02 7.54677100e-03 1.15017400e-01
       21 -1    0    0  501  502 +0.0000000000e+00 +0.0000000000e+00 +1.8781421806e+02 1.8781421806e+02 0.0000000000e+00 0.0000e+00 -1.0000e+00
       21 -1    0    0  502  503 -0.0000000000e+00 -0.0000000000e+00 -2.2269167766e+02 2.2269167766e+02 0.0000000000e+00 0.0000e+00 -1.0000e+00
       -6  2    1    2    0  503 +9.9303786847e+01 +7.2158234871e+00 -6.3675109291e+01 2.0871507188e+02 1.7202950763e+02 0.0000e+00 0.0000e+00
      -24  2    3    3    0    0 +3.9987923928e+01 -6.1039545245e+01 -2.4937831698e+01 1.1022733848e+02 7.8761097978e+01 0.0000e+00 0.0000e+00
        6  2    1    2  501    0 -9.9303786847e+01 -7.2158234871e+00 +2.8797649688e+01 2.0179082384e+02 1.7313844683e+02 0.0000e+00 0.0000e+00
       24  2    5    5    0    0 -4.1985309848e+01 -6.3473411139e+01 +5.4058202805e+01 1.1746698666e+02 7.1306125260e+01 0.0000e+00 0.0000e+00
       12  1    6    6    0    0 -4.0334489639e+00 -5.5845933013e+01 +5.5354240565e+01 7.8734547012e+01 0.0000000000e+00 0.0000e+00 -1.0000e+00
      -11  1    6    6    0    0 -3.7951860884e+01 -7.6274781259e+00 -1.2960377600e+00 3.8732439647e+01 0.0000000000e+00 0.0000e+00 1.0000e+00
      -12  1    4    4    0    0 +2.4466158440e+00 +1.7839340404e+01 +3.5296503570e+00 1.8349017052e+01 0.0000000000e+00 0.0000e+00 1.0000e+00
       11  1    4    4    0    0 +3.7541308084e+01 -7.8878885649e+01 -2.8467482055e+01 9.1878321428e+01 0.0000000000e+00 0.0000e+00 -1.0000e+00
        5  1    5    5  501    0 -5.7318476999e+01 +5.6257587652e+01 -2.5260553117e+01 8.4323837186e+01 4.7000000000e+00 0.0000e+00 -1.0000e+00
       -5  1    3    3    0  503 +5.9315862919e+01 +6.8255368732e+01 -3.8737277592e+01 9.8487733398e+01 4.7000000000e+00 0.0000e+00 1.0000e+00
</event>
<event>
12      1 +3.3740700e+00 1.74506800e+02 7.54677100e-03 1.17322800e-01
        1 -1    0    0  502    0 +0.0000000000e+00 +0.0000000000e+00 +6.0415482002e+01 6.0415482002e+01 0.0000000000e+00 0.0000e+00 -1.0000e+00
       -1 -1    0    0    0  501 -0.0000000000e+00 -0.0000000000e+00 -5.0509279493e+02 5.0509279493e+02 0.0000000000e+00 0.0000e+00 1.0000e+00
        6  2    1    2  502    0 -1.6391058157e+01 -2.3108639553e+01 -2.3647493987e+02 2.9456846215e+02 1.7334216366e+02 0.0000e+00 0.0000e+00
       24  2    3    3    0    0 +4.3287544461e+01 +2.5952930192e+01 -1.4073634868e+02 1.7145655746e+02 8.3924163168e+01 0.0000e+00 0.0000e+00
       -6  2    1    2    0  501 +1.6391058157e+01 +2.3108639553e+01 -2.0820237306e+02 2.7093981478e+02 1.7104817764e+02 0.0000e+00 0.0000e+00
      -24  2    5    5    0    0 +2.9193167112e+01 -5.0372038884e+01 -1.2325052969e+02 1.5779296423e+02 7.9488006542e+01 0.0000e+00 0.0000e+00
       14  1    4    4    0    0 +6.1569674472e+01 +1.0533536155e+01 -5.7668552578e+01 8.5014364403e+01 0.0000000000e+00 0.0000e+00 -1.0000e+00
      -13  1    4    4    0    0 -1.8282130011e+01 +1.5419394037e+01 -8.3067796103e+01 8.6442193052e+01 0.0000000000e+00 0.0000e+00 1.0000e+00
      -12  1    6    6    0    0 +5.3397645390e+01 -3.0376145886e+01 -1.0451223649e+02 1.2123046790e+02 0.0000000000e+00 0.0000e+00 1.0000e+00
       11  1    6    6    0    0 -2.4204478278e+01 -1.9995892998e+01 -1.8738293200e+01 3.6562496326e+01 0.0000000000e+00 0.0000e+00 -1.0000e+00
        5  1    3    3  502    0 -5.9678602617e+01 -4.9061569745e+01 -9.5738591188e+01 1.2311190470e+02 4.7000000000e+00 0.0000e+00 -1.0000e+00
       -5  1    5    5    0  501 -1.2802108955e+01 +7.3480678437e+01 -8.4951843373e+01 1.1314685055e+02 4.7000000000e+00 0.0000e+00 1.0000e+00
</event>
<event>
12      1 +3.3740700e+00 1.89467500e+02 7.54677100e-03 1.15911300e-01
       21 -1    0    0  501  502 +0.0000000000e+00 +0.0000000000e+00 +1.3011499384e+02 1.3011499384e+02 0.0000000000e+00 0.0000e+00 1.0000e+00
       21 -1    0    0  502  503 -0.0000000000e+00 -0.0000000000e+00 -3.1146152338e+02 3.1146152338e+02 0.0000000000e+00 0.0000e+00 1.0000e+00
       -6  2    1    2    0  503 -6.2685193986e+01 -3.8052932549e+01 -1.6657915796e+02 2.5228269891e+02 1.7470113074e+02 0.0000e+00 0.0000e+00
      -24  2    3    3    0    0 +4.6779778900e+00 +3.6496756164e+01 -8.0378248377e+01 1.1981330688e+02 8.0874402657e+01 0.0000e+00 0.0000e+00
        6  2    1    2  501    0 +6.2685193986e+01 +3.8052932549e+01 -1.4767371585e+01 1.8929381832e+02 1.7388678837e+02 0.0000e+00 0.0000e+00
       24  2    5    5    0    0 -3.1925374251e+01 +1.7175618454e+01 -2.3984213717e+01 9.1856340695e+01 8.0920414161e+01 0.0000e+00 0.0000e+00
       14  1    6    6    0    0 -1.6054360066e+01 -2.3559950749e+01 -3.6563063445e+01 4.6364548578e+01 0.0000000000e+00 0.0000e+00 -1.0000e+00
      -13  1    6    6    0    0 -1.5871014185e+01 +4.0735569203e+01 +1.2578849728e+01 4.5491792117e+01 0.0000000000e+00 0.0000e+00 1.0000e+00
      -14  1    4    4    0    0 +3.3456333864e+01 +4.6315583767e+00 -6.5461493886e+00 3.4403919550e+01 0.0000000000e+00 0.0000e+00 1.0000e+00
       13  1    4    4    0    0 -2.8778355974e+01 +3.1865197787e+01 -7.3832098989e+01 8.5409387327e+01 0.0000000000e+00 0.0000e+00 -1.0000e+00
        5  1    5    5  501    0 +9.4610568238e+01 +2.0877314095e+01 +9.2168421321e+00 9.7437477620e+01 4.7000000000e+00 0.0000e+00 -1.0000e+00
       -5  1    3    3    0  503 -6.7363171877e+01 -7.4549688713e+01 -8.6200909581e+01 1.3246939203e+02 4.7000000000e+00 0.0000e+00 1.0000e+00
</event>
<event>
12      1 +3.3740700e+00 2.44104300e+02 7.54677100e-03 1.12019600e-01
       21 -1    0    0  503  502 +0.0000000000e+00 +0.0000000000e+00 +6.3676762044e+02 6.3676762044e+02 0.0000000000e+00 0.0000e+00 1.0000e+00
       21 -1    0    0  501  503 -0.0000000000e+00 -0.0000000000e+00 -9.0307912578e+01 9.0307912578e+01 0.0000000000e+00 0.0000e+00 1.0000e+00
        6  2    1    2  501    0 +7.5915268061e+00 -1.4661603911e+02 +1.9035593423e+02 2.9533859441e+02 1.7156808983e+02 0.0000e+00 0.0000e+00
       24  2    3    3    0    0 -3.8386859874e+01 -1.5361263404e+02 +1.6685423989e+02 2.4301857894e+02 7.8404719176e+01 0.0000e+00 0.0000e+00
       -6  2    1    2    0  502 -7.5915268061e+00 +1.4661603911e+02 +3.5610377363e+02 4.3173693861e+02 1.9502049216e+02 0.0000e+00 0.0000e+00
      -24  2    5    5    0    0 -1.0400650987e+01 -1.2248293248e+01 +8.9232559230e+01 1.2111159780e+02 8.0295549487e+01 0.0000e+00 0.0000e+00
       12  1    4    4    0    0 -5.8399560648e+00 -1.0448758026e+02 +1.4777590553e+02 1.8107865079e+02 0.0000000000e+00 0.0000e+00 -1.0000e+00
      -11  1    4    4    0    0 -3.2546903810e+01 -4.9125053784e+01 +1.9078334358e+01 6.1939928146e+01 0.0000000000e+00 0.0000e+00 1.0000e+00
      -14  1    6    6    0    0 +2.2899730726e+01 -3.3945161108e+01 +5.5569439058e+01 6.9026329667e+01 0.0000000000e+00 0.0000e+00 1.0000e+00
       13  1    6    6    0    0 -3.3300381714e+01 +2.1696867860e+01 +3.3663120172e+01 5.2085268137e+01 0.0000000000e+00 0.0000e+00 -1.0000e+00
        5  1    3    3  501    0 +4.5978386680e+01 +6.9965949342e+00 +2.3501694340e+01 5.2320015475e+01 4.7000000000e+00 0.0000e+00 -1.0000e+00
       -5  1    5    5    0  502 +2.8091241811e+00 +1.5886433236e+02 +2.6687121440e+02 3.1062534080e+02 4.7000000000e+00 0.0000e+00 1.0000e+00
</event>
<event>
12      1 +3.3740700e+00 2.13814700e+02 7.54677100e-03 1.13858000e-01
       -1 -1    0    0    0  501 -0.0000000000e+00 +0.0000000000e+00 +3.7364790990e+01 3.7364790990e+01 0.0000000000e+00 0.0000e+00 -1.0000e+00
        1 -1    0    0  502    0 +0.0000000000e+00 -0.0000000000e+00 -1.2242638658e+03 1.2242638658e+03 0.0000000000e+00 0.0000e+00 1.0000e+00
        6  2    1    2  502    0 -9.5925135941e+01 -6.6583756412e+01 -6.1352137696e+02 6.5128039484e+02 1.8472315611e+02 0.0000e+00 0.0000e+00
       24  2    3    3    0    0 -1.2375726517e+02 -9.0507752640e+01 -5.5908804789e+02 5.8546199068e+02 8.1723823155e+01 0.0000e+00 0.0000e+00
       -6  2    1    2    0  501 +9.5925135941e+01 +6.6583756412e+01 -5.7337769780e+02 6.1034826189e+02 1.7357415746e+02 0.0000e+00 0.0000e+00
      -24  2    5    5    0    0 +7.8945404799e+01 +1.1094179955e+02 -4.8285795421e+02 5.0801614943e+02 7.9925867616e+01 0.0000e+00 0.0000e+00
       14  1    4    4    0    0 -4.7637499444e+01 -7.0710690178e+01 -3.8657111509e+02 3.9586179417e+02 0.0000000000e+00 0.0000e+00 -1.0000e+00
      -13  1    4    4    0    0 -7.6119765728e+01 -1.9797062463e+01 -1.7251693280e+02 1.8960019651e+02 0.0000000000e+00 0.0000e+00 1.0000e+00
      -12  1    6    6    0    0 +4.6404922895e+01 +1.0870366990e+02 -3.0323270161e+02 3.2545349291e+02 0.0000000000e+00 0.0000e+00 1.0000e+00
       11  1    6    6    0    0 +3.2540481904e+01 +2.2381296515e+00 -1.7962525259e+02 1.8256265652e+02 0.0000000000e+00 0.0000e+00 -1.0000e+00
        5  1    3    3  502    0 +2.7832129231e+01 +2.3923996229e+01 -5.4433329069e+01 6.5818404163e+01 4.7000000000e+00 0.0000e+00 -1.0000e+00
       -5  1    5    5    0  501 +1.6979731142e+01 -4.4358043139e+01 -9.0519743599e+01 1.0233211247e+02 4.7000000000e+00 0.0000e+00 1.0000e+00
</event>
<event>
12      1 +3.3740700e+00 2.40213400e+02 7.54677100e-03 1.11965100e-01
       -1 -1    0    0    0  501 -0.0000000000e+00 +0.0000000000e+00 +2.3159756603e+02 2.3159756603e+02 0.0000000000e+00 0.0000e+00 -1.0000e+00
        1 -1    0    0  502    0 +0.0000000000e+00 -0.0000000000e+00 -2.9183269345e+02 2.9183269345e+02 0.0000000000e+00 0.0000e+00 1.0000e+00
        6  2    1    2  502    0 +4.6446188413e+01 +1.5958354903e+02 -1.3018716191e+02 2.7306012128e+02 1.7317325190e+02 0.0000e+00 0.0000e+00
       24  2    3    3    0    0 -3.3077880067e+01 +9.6350777197e+01 -1.0914597734e+02 1.6919827868e+02 7.9609011571e+01 0.0000e+00 0.0000e+00
       -6  2    1    2    0  501 -4.6446188413e+01 -1.5958354903e+02 +6.9952034495e+01 2.5037013820e+02 1.7368869115e+02 0.0000e+00 0.0000e+00
      -24  2    5    5    0    0 -1.2959200547e+01 -1.2108409168e+02 +1.1460708622e+02 1.8240139379e+02 7.2843572860e+01 0.0000e+00 0.0000e+00
       12  1    4    4    0    0 -4.1475594177e+01 +1.2972764414e+01 -5.2000014107e+01 6.7768126697e+01 0.0000000000e+00 0.0000e+00 -1.0000e+00
      -11  1    4    4    0    0 +8.3977141105e+00 +8.3378012782e+01 -5.7145963233e+01 1.0143015198e+02 0.0000000000e+00 0.0000e+00 1.0000e+00
      -14  1    6    6    0    0 -1.2811864876e+00 -8.1806698900e+01 +1.1534762790e+02 1.4141800693e+02 0.0000000000e+00 0.0000e+00 1.0000e+00
       13  1    6    6    0    0 -1.1678014059e+01 -3.9277392780e+01 -7.4054167808e-01 4.0983386853e+01 0.0000000000e+00 0.0000e+00 -1.0000e+00
        5  1    3    3  502    0 +7.9524068479e+01 +6.3232771831e+01 -2.1041184568e+01 1.0386184260e+02 4.7000000000e+00 0.0000e+00 -1.0000e+00
       -5  1    5    5    0  501 -3.3486987866e+01 -3.8499457347e+01 -4.4655051722e+01 6.7968744410e+01 4.7000000000e+00 0.0000e+00 1.0000e+00
</event>
<event>
12      1 +3.3740700e+00 1.79696400e+02 7.54677100e-03 1.16809700e-01
       -2 -1    0    0    0  501 -0.0000000000e+00 +0.0000000000e+00 +4.7553553443e+01 4.7553553443e+01 0.0000000000e+00 0.0000e+00 1.0000e+00
        2 -1    0    0  502    0 +0.0000000000e+00 -0.0000000000e+00 -8.0688286482e+02 8.0688286482e+02 0.0000000000e+00 0.0000e+00 -1.0000e+00
        6  2    1    2  502    0 -3.0448219240e+01 +3.6490876264e+01 -5.4789387781e+02 5.7629458595e+02 1.7224712001e+02 0.0000e+00 0.0000e+00
       24  2    3    3    0    0 -5.8322601714e+00 +8.7920984251e+01 -3.3346615894e+02 3.5436590806e+02 8.1310533832e+01 0.0000e+00 0.0000e+00
       -6  2    1    2    0  501 +3.0448219240e+01 -3.6490876264e+01 -2.1143543357e+02 2.7814183231e+02 1.7435383049e+02 0.0000e+00 0.0000e+00
      -24  2    5    5    0    0 -4.9852159532e+01 -1.1680773696e+01 -1.0177598069e+02 1.3989937275e+02 8.1189937588e+01 0.0000e+00 0.0000e+00
       12  1    4    4    0    0 +3.7452875230e+01 +3.2727023405e+01 -1.4141449632e+02 1.4990608958e+02 0.0000000000e+00 0.0000e+00 -1.0000e+00
      -11  1    4    4    0    0 -4.3285135401e+01 +5.5193960847e+01 -1.9205166262e+02 2.0445981848e+02 0.0000000000e+00 0.0000e+00 1.0000e+00
      -14  1    6    6    0    0 -1.0009039889e+01 -5.0774054371e+00 +1.3615218127e+01 1.7644690140e+01 0.0000000000e+00 0.0000e+00 1.0000e+00
       13  1    6    6    0    0 -3.9843119643e+01 -6.6033682589e+00 -1.1539119881e+02 1.2225468261e+02 0.0000000000e+00 0.0000e+00 -1.0000e+00
        5  1    3    3  502    0 -2.4615959068e+01 -5.1430107987e+01 -2.1442771887e+02 2.2192867789e+02 4.7000000000e+00 0.0000e+00 -1.0000e+00
       -5  1    5    5    0  501 +8.0300378772e+01 -2.4810102568e+01 -1.0965945288e+02 1.3824245957e+02 4.7000000000e+00 0.0000e+00 1.0000e+00
</event>
<event>
11      1 +3.3740700e+00 2.98318600e+02 7.54677100e-03 1.09186000e-01
       21 -1    0    0  501  502 +0.0000000000e+00 +0.0000000000e+00 +3.7970682042e+02 3.7970682042e+02 0.0000000000e+00 0.0000e+00 -1.0000e+00
       21 -1    0    0  502  503 -0.0000000000e+00 -0.0000000000e+00 -2.0251820907e+02 2.0251820907e+02 0.0000000000e+00 0.0000e+00 -1.0000e+00
        6  2    1    2  501    0 +1.8149240929e+02 +4.2993825781e+01 +9.1208622295e+01 2.7176316004e+02 1.7535175702e+02 0.0000e+00 0.0000e+00
       24  2    3    3    0    0 +7.0762055115e+01 +8.5134021681e+01 +5.4405678991e+01 1.4761182464e+02 8.1081457659e+01 0.0000e+00 0.0000e+00
      -24  2    1    2    0    0 -1.5134707158e+02 +4.7778511293e+01 +1.1617924797e+02 2.1005049658e+02 7.3721579182e+01 0.0000e+00 0.0000e+00
       12  1    4    4    0    0 +4.7586394597e+01 +9.3081889145e+01 +2.1736810149e+01 1.0677636421e+02 0.0000000000e+00 0.0000e+00 -1.0000e+00
      -11  1    4    4    0    0 +2.3175660518e+01 -7.9478674637e+00 +3.2668868842e+01 4.0835460437e+01 0.0000000000e+00 0.0000e+00 1.0000e+00
      -12  1    5    5    0    0 -1.3238078558e+02 +6.5189924930e+01 +8.7687967809e+01 1.7164958025e+02 0.0000000000e+00 0.0000e+00 1.0000e+00
       11  1    5    5    0    0 -1.8966286006e+01 -1.7411413637e+01 +2.8491280162e+01 3.8400916330e+01 0.0000000000e+00 0.0000e+00 -1.0000e+00
        5  1    3    3  501    0 +1.1073035417e+02 -4.2140195900e+01 +3.6802943304e+01 1.2415133540e+02 4.7000000000e+00 0.0000e+00 -1.0000e+00
       -5  1    1    2    0  503 -3.0145337705e+01 -9.0772337074e+01 -3.0199258915e+01 1.0041137287e+02 4.7000000000e+00 0.0000e+00 1.0000e+00
</event>
<event>
12      1 +3.3740700e+00 1.75267700e+02 7.54677100e-03 1.17485100e-01
       21 -1    0    0  503  502 +0.0000000000e+00 +0.0000000000e+00 +2.3860242052e+02 2.3860242052e+02 0.0000000000e+00 0.0000e+00 -1.0000e+00
       21 -1    0    0  501  503 -0.0000000000e+00 -0.0000000000e+00 -2.4553026422e+02 2.4553026422e+02 0.0000000000e+00 0.0000e+00 -1.0000e+00
        6  2    1    2  501    0 +2.8993691398e+01 +8.3872495838e+00 -1.7515596271e+02 2.4778698349e+02 1.7264934932e+02 0.0000e+00 0.0000e+00
       24  2    3    3    0    0 -2.7828396506e+01 +4.3833163243e+01 -4.7528833537e+01 1.0357902057e+02 7.5985904178e+01 0.0000e+00 0.0000e+00
       -6  2    1    2    0  502 -2.8993691398e+01 -8.3872495838e+00 +1.6822811901e+02 2.3634570125e+02 1.6324095802e+02 0.0000e+00 0.0000e+00
      -24  2    5    5    0    0 +1.9879617067e+00 -5.8791960634e+01 +1.3835761270e+02 1.6990147748e+02 7.9140611767e+01 0.0000e+00 0.0000e+00
       14  1    4    4    0    0 +3.3667304737e+00 -1.2309981641e+01 +1.0875481667e+01 1.6767427459e+01 0.0000000000e+00 0.0000e+00 -1.0000e+00
      -13  1    4    4    0    0 -3.1195126980e+01 +5.6143144884e+01 -5.8404315204e+01 8.6811593115e+01 0.0000000000e+00 0.0000e+00 1.0000e+00
      -12  1    6    6    0    0 +2.8881988348e+01 -1.2493262715e+01 +9.7781999762e+01 1.0272083694e+02 0.0000000000e+00 0.0000e+00 1.0000e+00
       11  1    6    6    0    0 -2.6894026641e+01 -4.6298697918e+01 +4.0575612934e+01 6.7180640536e+01 0.0000000000e+00 0.0000e+00 -1.0000e+00
        5  1    3    3  501    0 +5.6822087904e+01 -3.5445913659e+01 -1.2762712917e+02 1.4420796292e+02 4.7000000000e+00 0.0000e+00 -1.0000e+00
       -5  1    5    5    0  502 -3.0981653105e+01 +5.0404711050e+01 +2.9870506318e+01 6.6444223773e+01 4.7000000000e+00 0.0000e+00 1.0000e+00
</event>
<event>
12      1 +3.3740700e+00 1.97609000e+02 7.54677100e-03 1.15306700e-01
       21 -1    0    0  501  502 +0.0000000000e+00 +0.0000000000e+00 +3.1745204698e+02 3.1745204698e+02 0.0000000000e+00 0.0000e+00 -1.0000e+00
       21 -1    0    0  502  503 -0.0000000000e+00 -0.0000000000e+00 -1.6382118140e+02 1.6382118140e+02 0.0000000000e+00 0.0000e+00 -1.0000e+00
       -6  2    1    2    0  503 +8.3870641500e+01 +2.7035786742e+01 -4.9425791502e+01 1.9793363149e+02 1.7020456909e+02 0.0000e+00 0.0000e+00
      -24  2    3    3    0    0 +4.0492072783e+01 +7.8221806643e+01 -5.4854596692e+01 1.3045570337e+02 7.9065825560e+01 0.0000e+00 0.0000e+00
        6  2    1    2  501    0 -8.3870641500e+01 -2.7035786742e+01 +2.0305665708e+02 2.8333959688e+02 1.7687312658e+02 0.0000e+00 0.0000e+00
       24  2    5    5    0    0 -1.2181935944e+02 -2.1587702048e+00 +1.1979884388e+02 1.8840317287e+02 7.9368607966e+01 0.0000e+00 0.0000e+00
       14  1    6    6    0    0 -5.1032018414e+01 -9.5812786415e+00 +1.0288614592e+02 1.1524594060e+02 0.0000000000e+00 0.0000e+00 -1.0000e+00
      -13  1    6    6    0    0 -7.0787341023e+01 +7.4225084367e+00 +1.6912697962e+01 7.3157232267e+01 0.0000000000e+00 0.0000e+00 1.0000e+00
      -12  1    4    4    0    0 -5.1627864825e+00 +3.4788010437e+01 -5.7480819397e+01 6.7386234744e+01 0.0000000000e+00 0.0000e+00 1.0000e+00
       11  1    4    4    0    0 +4.5654859265e+01 +4.3433796205e+01 +2.6262227054e+00 6.3069468628e+01 0.0000000000e+00 0.0000e+00 -1.0000e+00
        5  1    5    5  501    0 +3.7948717937e+01 -2.4877016537e+01 +8.3257813205e+01 9.4936424014e+01 4.7000000000e+00 0.0000e+00 -1.0000e+00
       -5  1    3    3    0  503 +4.3378568717e+01 -5.1186019901e+01 +5.4288051893e+00 6.7477928117e+01 4.7000000000e+00 0.0000e+00 1.0000e+00
</event>
<event>
12      1 +3.3740700e+00 2.00719900e+02 7.54677100e-03 1.14939600e-01
       21 -1    0    0  503  502 +0.0000000000e+00 +0.0000000000e+00 +1.0613384974e+02 1.0613384974e+02 0.0000000000e+00 0.0000e+00 -1.0000e+00
       21 -1    0    0  501  503 -0.0000000000e+00 -0.0000000000e+00 -4.2885819247e+02 4.2885819247e+02 0.0000000000e+00 0.0000e+00 1.0000e+00
        6  2    1    2  501    0 +7.3648077966e+01 -6.4912427400e+01 -2.5371802202e+02 3.2274134919e+02 1.7364181858e+02 0.0000e+00 0.0000e+00
       24  2    3    3    0    0 +1.1465497345e+02 -7.2302691198e+01 -2.0741981865e+02 2.6027699846e+02 7.9672408447e+01 0.0000e+00 0.0000e+00
       -6  2    1    2    0  502 -7.3648077966e+01 +6.4912427400e+01 -6.9006320707e+01 2.1225069302e+02 1.7507376095e+02 0.0000e+00 0.0000e+00
      -24  2    5    5    0    0 +1.1367159312e+01 +7.6731173481e+01 -2.1142899593e+01 1.1386232781e+02 8.0627056235e+01 0.0000e+00 0.0000e+00
       14  1    4    4    0    0 +2.4431499113e+01 +1.4284076623e+01 -1.8822633186e+01 3.3988593880e+01 0.0000000000e+00 0.0000e+00 -1.0000e+00
      -13  1    4    4    0    0 +9.0223474340e+01 -8.6586767820e+01 -1.8859718546e+02 2.2628840458e+02 0.0000000000e+00 0.0000e+00 1.0000e+00
      -14  1    6    6    0    0 +1.7324750784e+01 -8.4829896367e+00 +1.1451237147e+01 2.2432987654e+01 0.0000000000e+00 0.0000e+00 1.0000e+00
       13  1    6    6    0    0 -5.9575914718e+00 +8.5214163117e+01 -3.2594136740e+01 9.1429340158e+01 0.0000000000e+00 0.0000e+00 -1.0000e+00
        5  1    3    3  501    0 -4.1006895487e+01 +7.3902637975e+00 -4.6298203369e+01 6.2464350727e+01 4.7000000000e+00 0.0000e+00 -1.0000e+00
       -5  1    5    5    0  502 -8.5015237278e+01 -1.1818746081e+01 -4.7863421114e+01 9.8388365212e+01 4.7000000000e+00 0.0000e+00 1.0000e+00
</event>
<event>
12      1 +3.3740700e+00 2.00376300e+02 7.54677100e-03 1.14955500e-01
       21 -1    0    0  501  502 +0.0000000000e+00 +0.0000000000e+00 +7.2030863336e+02 7.2030863336e+02 0.0000000000e+00 0.0000e+00 1.0000e+00
       21 -1    0    0  502  503 -0.0000000000e+00 -0.0000000000e+00 -5.5686836203e+01 5.5686836203e+01 0.0000000000e+00 0.0000e+00 -1.0000e+00
        6  2    1    2  501    0 +5.2395088207e+01 -9.1093370145e+01 +3.4991485509e+02 4.0291219151e+02 1.6986636190e+02 0.0000e+00 0.0000e+00
       24  2    3    3    0    0 +1.9142609108e+01 +5.8379090681e+00 +2.3255983624e+02 2.4704144151e+02 8.0900406229e+01 0.0000e+00 0.0000e+00
       -6  2    1    2    0  503 -5.2395088207e+01 +9.1093370145e+01 +3.1470694207e+02 3.7308327805e+02 1.7060898459e+02 0.0000e+00 0.0000e+00
      -24  2    5    5    0    0 -4.1298904871e+01 -3.4163701013e-01 +8.1255056703e+01 1.2207459573e+02 8.1204103494e+01 0.0000e+00 0.0000e+00
       14  1    4    4    0    0 +9.9188159992e+00 +3.9355029317e+01 +7.0977420823e+01 8.1761821837e+01 0.0000000000e+00 0.0000e+00 -1.0000e+00
      -13  1    4    4    0    0 +9.2237931084e+00 -3.3517120248e+01 +1.6158241541e+02 1.6527961968e+02 0.0000000000e+00 0.0000e+00 1.0000e+00
      -12  1    6    6    0    0 -2.2008685147e+01 -4.0475869070e+01 +3.4917789073e+01 5.7809429963e+01 0.0000000000e+00 0.0000e+00 1.0000e+00
       11  1    6    6    0    0 -1.9290219724e+01 +4.0134232060e+01 +4.6337267630e+01 6.4265165770e+01 0.0000000000e+00 0.0000e+00 -1.0000e+00
        5  1    3    3  501    0 +3.3252479099e+01 -9.6931279213e+01 +1.1735501885e+02 1.5587075000e+02 4.7000000000e+00 0.0000e+00 -1.0000e+00
       -5  1    5    5    0  503 -1.1096183335e+01 +9.1435007155e+01 +2.3345188536e+02 2.5100868232e+02 4.7000000000e+00 0.0000e+00 1.0000e+00
</event>
<event>
12      1 +3.3740700e+00 2.07627200e+02 7.54677100e-03 1.14348600e-01
       21 -1    0    0  503  502 +0.0000000000e+00 +0.0000000000e+00 +9.6763319340e+01 9.6763319340e+01 0.0000000000e+00 0.0000e+00 -1.0000e+00
       21 -1    0    0  501  503 -0.0000000000e+00 -0.0000000000e+00 -4.5198040814e+02 4.5198040814e+02 0.0000000000e+00 0.0000e+00 -1.0000e+00
        6  2    1    2  501    0 +1.4517098820e+01 -1.1422019326e+02 -2.1111340118e+02 2.9600887081e+02 1.7261339674e+02 0.0000e+00 0.0000e+00
       24  2    3    3    0    0 -2.2571234945e+01 -1.3481848978e+02 -1.9318131113e+02 2.4971109360e+02 7.9693948740e+01 0.0000e+00 0.0000e+00
       -6  2    1    2    0  502 -1.4517098820e+01 +1.1422019326e+02 -1.4410368763e+02 2.5273485667e+02 1.7277741832e+02 0.0000e+00 0.0000e+00
      -24  2    5    5    0    0 +3.1897249305e+01 +6.2142685155e+01 -1.4917886299e+02 1.8263345892e+02 7.8876481427e+01 0.0000e+00 0.0000e+00
       12  1    4    4    0    0 -1.4287393187e+01 -1.4300069555e+02 -1.6270221404e+02 2.1708371423e+02 0.0000000000e+00 0.0000e+00 -1.0000e+00
      -11  1    4    4    0    0 -8.2838417574e+00 +8.1822057656e+00 -3.0479097084e+01 3.2627379369e+01 0.0000000000e+00 0.0000e+00 1.0000e+00
      -14  1    6    6    0    0 +2.2605323926e+00 -1.4636884901e+01 -5.7748416132e+01 5.9617346234e+01 0.0000000000e+00 0.0000e+00 1.0000e+00
       13  1    6    6    0    0 +2.9636716912e+01 +7.6779570056e+01 -9.1430446854e+01 1.2301611268e+02 0.0000000000e+00 0.0000e+00 -1.0000e+00
        5  1    3    3  501    0 +3.7088333765e+01 +2.0598296520e+01 -1.7932090054e+01 4.6297777211e+01 4.7000000000e+00 0.0000e+00 -1.0000e+00
       -5  1    5    5    0  502 -4.6414348125e+01 +5.2077508107e+01 +5.0751753602e+00 7.0101397756e+01 4.7000000000e+00 0.0000e+00 1.0000e+00
</event>
<event>
11      1 +3.3740700e+00 1.85788900e+02 7.54677100e-03 1.16256300e-01
       21 -1    0    0  503  502 +0.0000000000e+00 +0.0000000000e+00 +3.1753668156e+02 3.1753668156e+02 0.0000000000e+00 0.0000e+00 1.0000e+00
       21 -1    0    0  501  503 -0.0000000000e+00 -0.0000000000e+00 -1.1151446903e+02 1.1151446903e+02 0.0000000000e+00 0.0000e+00 1.0000e+00
        6  2    1    2  501    0 -6.1685192733e+01 +2.4167971858e+01 +6.5091617797e+01 1.9585820690e+02 1.7243655249e+02 0.0000e+00 0.0000e+00
       24  2    3    3    0    0 -9.2598480181e+01 +5.6013069177e+01 +6.7429302122e+01 1.5116708550e+02 8.1196271485e+01 0.0000e+00 0.0000e+00
       -6  2    1    2    0  502 +6.1685192733e+01 -2.4167971858e+01 +1.4093059473e+02 2.3319294369e+02 1.7357523610e+02 0.0000e+00 0.0000e+00
       12  1    4    4    0    0 -8.1648732225e+01 +5.7475795560e+01 +8.4518606670e+01 1.3081810816e+02 0.0000000000e+00 0.0000e+00 -1.0000e+00
      -11  1    4    4    0    0 -1.0949747956e+01 -1.4627263838e+00 -1.7089304548e+01 2.0348977338e+01 0.0000000000e+00 0.0000e+00 1.0000e+00
      -14  1    5    5    0    0 -4.4906776283e+00 +7.2889647121e+00 -1.3151276208e+00 8.6616830232e+00 0.0000000000e+00 0.0000e+00 1.0000e+00
       13  1    5    5    0    0 -1.9370054357e+01 +4.6629384920e+01 +7.5318020180e+01 9.0676913862e+01 0.0000000000e+00 0.0000e+00 -1.0000e+00
        5  1    3    3  501    0 +3.0913287448e+01 -3.1845097318e+01 -2.3376843249e+00 4.4691121401e+01 4.7000000000e+00 0.0000e+00 -1.0000e+00
       -5  1    5    5    0  502 +8.5545924718e+01 -7.8086321490e+01 +6.6927702170e+01 1.3385434680e+02 4.7000000000e+00 0.0000e+00 1.0000e+00
</event>
<event>
11      1 +3.3740700e+00 2.00744700e+02 7.54677100e-03 1.14911200e-01
       -1 -1    0    0    0  501 -0.0000000000e+00 +0.0000000000e+00 +3.7045294281e+01 3.7045294281e+01 0.0000000000e+00 0.0000e+00 -1.0000e+00
        1 -1    0    0  502    0 +0.0000000000e+00 -0.0000000000e+00 -1.1948124383e+03 1.1948124383e+03 0.0000000000e+00 0.0000e+00 1.0000e+00
       24  2    1    2    0    0 +5.1160271007e+01 -5.8267033483e+01 -4.1696927407e+02 4.3011553052e+02 7.1579141906e+01 0.0000e+00 0.0000e+00
       -6  2    1    2    0  501 -4.7779624167e+01 -5.0780490318e+01 -3.6285072850e+02 4.0833538597e+02 1.7382630864e+02 0.0000e+00 0.0000e+00
      -24  2    4    4    0    0 -9.1561577087e+01 -2.8610306155e+00 -2.3413406646e+02 2.6410223060e+02 8.0867293989e+01 0.0000e+00 0.0000e+00
       12  1    3    3    0    0 -5.6748169401e+00 -4.1889536308e+01 -1.1779117092e+02 1.2514670090e+02 0.0000000000e+00 0.0000e+00 -1.0000e+00
      -11  1    3    3    0    0 +5.6835087947e+01 -1.6377497175e+01 -2.9917810315e+02 3.0496882962e+02 0.0000000000e+00 0.0000e+00 1.0000e+00
      -12  1    5    5    0    0 -4.6056382687e+01 +3.8027417070e+01 -1.3482866385e+02 1.4746539740e+02 0.0000000000e+00 0.0000e+00 1.0000e+00
       11  1    5    5    0    0 -4.5505194400e+01 -4.0888447685e+01 -9.9305402609e+01 1.1663683320e+02 0.0000000000e+00 0.0000e+00 -1.0000e+00
        5  1    1    2  502    0 -3.3806468399e+00 +1.0904752380e+02 -3.7794714147e+02 3.9340681611e+02 4.7000000000e+00 0.0000e+00 -1.0000e+00
       -5  1    4    4    0  501 +4.3781952920e+01 -4.7919459703e+01 -1.2871666204e+02 1.4423315537e+02 4.7000000000e+00 0.0000e+00 1.0000e+00
</event>
<event>
12      1 +3.3740700e+00 1.90638000e+02 7.54677100e-03 1.15792000e-01
       21 -1    0    0  501  502 +0.0000000000e+00 +0.0000000000e+00 +1.5128761820e+02 1.5128761820e+02 0.0000000000e+00 0.0000e+00 -1.0000e+00
       21 -1    0    0  502  503 -0.0000000000e+00 -0.0000000000e+00 -3.9243153615e+02 3.9243153615e+02 0.0000000000e+00 0.0000e+00 -1.0000e+00
       -6  2    1    2    0  503 +3.9713586323e+01 -6.8567831567e+01 -2.9001081788e+02 3.4705783186e+02 1.7339016034e+02 0.0000e+00 0.0000e+00
      -24  2    3    3    0    0 +9.1264158733e+01 -6.8124387217e+01 -2.0802796751e+02 2.5009940823e+02 7.9397732497e+01 0.0000e+00 0.0000e+00
        6  2    1    2  501    0 -3.9713586323e+01 +6.8567831567e+01 +4.8866899927e+01 1.9666132249e+02 1.7323101740e+02 0.0000e+00 0.0000e+00
       24  2    5    5    0    0 -4.5223289725e+01 +3.7290272293e+01 +9.6532697553e+01 1.3919167129e+02 8.1363685495e+01 0.0000e+00 0.0000e+00
       12  1    6    6    0    0 -3.6297517343e+01 +6.2563058517e+01 +7.9275888299e+01 1.0731408352e+02 0.0000000000e+00 0.0000e+00 -1.0000e+00
      -11  1    6    6    0    0 -8.9257723827e+00 -2.5272786224e+01 +1.7256809254e+01 3.1877587766e+01 0.0000000000e+00 0.0000e+00 1.0000e+00
      -14  1    4    4    0    0 +9.7190022152e+01 -3.8934288344e+01 -1.3224274575e+02 1.6867104974e+02 0.0000000000e+00 0.0000e+00 1.0000e+00
       13  1    4    4    0    0 -5.9258634197e+00 -2.9190098873e+01 -7.5785221760e+01 8.1428358492e+01 0.0000000000e+00 0.0000e+00 -1.0000e+00
        5  1    5    5  501    0 +5.5097034026e+00 +3.1277559274e+01 -4.7665797626e+01 5.7469651200e+01 4.7000000000e+00 0.0000e+00 -1.0000e+00
       -5  1    3    3    0  503 -5.1550572410e+01 -4.4344435014e-01 -8.1982850368e+01 9.6958423632e+01 4.7000000000e+00 0.0000e+00 1.0000e+00
</event>
<event>
12      1 +3.3740700e+00 1.79802900e+02 7.54677100e-03 1.16799400e-01
       -1 -1    0    0    0  501 -0.0000000000e+00 +0.0000000000e+00 +8.8080448938e+01 8.8080448938e+01 0.0000000000e+00 0.0000e+00 1.0000e+00
        1 -1    0    0  502    0 +0.0000000000e+00 -0.0000000000e+00 -4.1914321742e+02 4.1914321742e+02 0.0000000000e+00 0.0000e+00 -1.0000e+00
        6  2    1    2  502    0 -1.6428686530e+01 +4.9520988668e+01 -2.5559987894e+02 3.1297887541e+02 1.7292266559e+02 0.0000e+00 0.0000e+00
       24  2    3    3    0    0 -5.2511466142e+01 +8.5790042355e+01 -1.9169737609e+02 2.3098478348e+02 8.0552472067e+01 0.0000e+00 0.0000e+00
       -6  2    1    2    0  501 +1.6428686530e+01 -4.9520988668e+01 -7.5462889542e+01 1.9424479095e+02 1.7121378757e+02 0.0000e+00 0.0000e+00
      -24  2    5    5    0    0 -5.4218144736e+01 -2.5377146324e+01 -3.2969735962e+01 1.0821190194e+02 8.3899972930e+01 0.0000e+00 0.0000e+00
       12  1    4    4    0    0 -1.3753368509e+01 -1.2588005867e+01 -5.5578891478e+01 5.8622744861e+01 0.0000000000e+00 0.0000e+00 -1.0000e+00
      -11  1    4    4    0    0 -3.8758097633e+01 +9.8378048222e+01 -1.3611848461e+02 1.7236203862e+02 0.0000000000e+00 0.0000e+00 1.0000e+00
      -14  1    6    6    0    0 +4.3942434032e+00 -4.1931497247e+01 -1.3307535071e+01 4.4211427552e+01 0.0000000000e+00 0.0000e+00 1.0000e+00
       13  1    6    6    0    0 -5.8612388139e+01 +1.6554350923e+01 -1.9662200891e+01 6.4000474387e+01 0.0000000000e+00 0.0000e+00 -1.0000e+00
        5  1    3    3  502    0 +3.6082779611e+01 -3.6269053688e+01 -6.3902502852e+01 8.1994091925e+01 4.7000000000e+00 0.0000e+00 -1.0000e+00
       -5  1    5    5    0  501 +7.0646831267e+01 -2.4143842344e+01 -4.2493153580e+01 8.6032889015e+01 4.7000000000e+00 0.0000e+00 1.0000e+00
</event>
<event>
12      1 +3.3740700e+00 1.73316000e+02 7.54677100e-03 1.17481400e-01
       21 -1    0    0  503  502 +0.0000000000e+00 +0.0000000000e+00 +7.8818224173e+01 7.8818224173e+01 0.0000000000e+00 0.0000e+00 1.0000e+00
       21 -1    0    0  501  503 -0.0000000000e+00 -0.0000000000e+00 -4.9840465453e+02 4.9840465453e+02 0.0000000000e+00 0.0000e+00 -1.0000e+00
        6  2    1    2  501    0 -1.7289392167e+01 -3.6970015126e+01 -6.7155206676e+01 1.8448096498e+02 1.6690625979e+02 0.0000e+00 0.0000e+00
       24  2    3    3    0    0 +4.1932856929e+01 -5.2726205137e+01 -1.8798186953e+01 1.0627595448e+02 8.0017432285e+01 0.0000e+00 0.0000e+00
       -6  2    1    2    0  502 +1.7289392167e+01 +3.6970015126e+01 -3.5243122368e+02 3.9274191372e+02 1.6844209173e+02 0.0000e+00 0.0000e+00
      -24  2    5    5    0    0 -4.2557087249e+01 +3.1397120986e+01 -2.9185761943e+02 3.0727899908e+02 8.0265985148e+01 0.0000e+00 0.0000e+00
       12  1    4    4    0    0 +5.3173759940e+01 -1.3986200530e+01 -3.2264081099e+01 6.3749772396e+01 0.0000000000e+00 0.0000e+00 -1.0000e+00
      -11  1    4    4    0    0 -1.1240903011e+01 -3.8740004606e+01 +1.3465894146e+01 4.2526182083e+01 0.0000000000e+00 0.0000e+00 1.0000e+00
      -12  1    6    6    0    0 -6.1168519221e+01 +3.6734812640e+01 -1.7767675858e+02 1.9146818206e+02 0.0000000000e+00 0.0000e+00 1.0000e+00
       11  1    6    6    0    0 +1.8611431972e+01 -5.3376916533e+00 -1.1418086086e+02 1.1581081702e+02 0.0000000000e+00 0.0000e+00 -1.0000e+00
        5  1    3    3  501    0 -5.9222249096e+01 +1.5756190011e+01 -4.8357019723e+01 7.8205010505e+01 4.7000000000e+00 0.0000e+00 -1.0000e+00
       -5  1    5    5    0  502 +5.9846479416e+01 +5.5728941393e+00 -6.0573604249e+01 8.5462914643e+01 4.7000000000e+00 0.0000e+00 1.0000e+00
</event>
<event>
12      1 +3.3740700e+00 1.95316100e+02 7.54677100e-03 1.15375200e-01
       -3 -1    0    0    0  501 -0.0000000000e+00 +0.0000000000e+00 +5.7647327190e+01 5.7647327190e+01 0.0000000000e+00 0.0000e+00 1.0000e+00
        3 -1    0    0  502    0 +0.0000000000e+00 -0.0000000000e+00 -6.9615892676e+02 6.9615892676e+02 0.0000000000e+00 0.0000e+00 -1.0000e+00
        6  2    1    2  502    0 -1.4069840380e+01 -8.2577800906e+01 -2.4266897212e+02 3.1429109854e+02 1.8131081320e+02 0.0000e+00 0.0000e+00
       24  2    3    3    0    0 -5.8994667306e+01 -2.6572953295e+01 -6.4123313625e+01 1.2179324090e+02 8.0841212017e+01 0.0000e+00 0.0000e+00
       -6  2    1    2    0  501 +1.4069840380e+01 +8.2577800906e+01 -3.9584262745e+02 4.3951515541e+02 1.7165410720e+02 0.0000e+00 0.0000e+00
      -24  2    5    5    0    0 -4.6699857205e+01 +7.6879075771e+01 -2.0270849580e+02 2.3691131927e+02 8.3336486436e+01 0.0000e+00 0.0000e+00
       14  1    4    4    0    0 -7.4925967090e+01 -1.7855213119e+01 -6.8539234551e+01 1.0310352008e+02 0.0000000000e+00 0.0000e+00 -1.0000e+00
      -13  1    4    4    0    0 +1.5931299784e+01 -8.7177401760e+00 +4.4159209264e+00 1.8689720817e+01 0.0000000000e+00 0.0000e+00 1.0000e+00
      -14  1    6    6    0    0 +5.8170442106e+00 +4.9687244474e+01 -4.0846797043e+01 6.4584217077e+01 0.0000000000e+00 0.0000e+00 1.0000e+00
       13  1    6    6    0    0 -5.2516901416e+01 +2.7191831297e+01 -1.6186169876e+02 1.7232710219e+02 0.0000000000e+00 0.0000e+00 -1.0000e+00
        5  1    3    3  502    0 +4.4924826926e+01 -5.6004847612e+01 -1.7854565850e+02 1.9249785765e+02 4.7000000000e+00 0.0000e+00 -1.0000e+00
       -5  1    5    5    0  501 +6.0769697585e+01 +5.6987251357e+00 -1.9313413165e+02 2.0260383614e+02 4.7000000000e+00 0.0000e+00 1.0000e+00
</event>
<event>
12      1 +3.3740700e+00 1.86375600e+02 7.54677100e-03 1.16304200e-01
       21 -1    0    0  503  502 +0.0000000000e+00 +0.0000000000e+00 +4.6461685149e+02 4.6461685149e+02 0.0000000000e+00 0.0000e+00 -1.0000e+00
       21 -1    0    0  501  503 -0.0000000000e+00 -0.0000000000e+00 -7.5273063571e+01 7.5273063571e+01 0.0000000000e+00 0.0000e+00 -1.0000e+00
        6  2    1    2  501    0 -1.4578581855e+00 -5.6532631578e+01 +1.4112173676e+02 2.2948689323e+02 1.7190353630e+02 0.0000e+00 0.0000e+00
       24  2    3    3    0    0 -9.7976389276e+00 +5.6137489371e+00 +9.1052460420e+00 8.3260464785e+01 8.1987142803e+01 0.0000e+00 0.0000e+00
       -6  2    1    2    0  502 +1.4578581855e+00 +5.6532631578e+01 +2.4822205117e+02 3.1040302184e+02 1.7758881017e+02 0.0000e+00 0.0000e+00
      -24  2    5    5    0    0 +3.7179580842e+01 -1.6104582293e+01 +6.5163235836e+01 1.1019106870e+02 7.9083155695e+01 0.0000e+00 0.0000e+00
       14  1    4    4    0    0 -1.7602224597e+01 -2.9421771949e+01 -1.7583635787e+01 3.8531327810e+01 0.0000000000e+00 0.0000e+00 -1.0000e+00
      -13  1    4    4    0    0 +7.8045856692e+00 +3.5035520886e+01 +2.6688881829e+01 4.4729136974e+01 0.0000000000e+00 0.0000e+00 1.0000e+00
      -14  1    6    6    0    0 +7.3113620019e+00 -4.5982799118e+01 +3.2299742646e+01 5.6666985133e+01 0.0000000000e+00 0.0000e+00 1.0000e+00
       13  1    6    6    0    0 +2.9868218841e+01 +2.9878216825e+01 +3.2863493189e+01 5.3524083569e+01 0.0000000000e+00 0.0000e+00 -1.0000e+00
        5  1    3    3  501    0 +8.3397807421e+00 -6.2146380516e+01 +1.3201649072e+02 1.4622642844e+02 4.7000000000e+00 0.0000e+00 -1.0000e+00
       -5  1    5    5    0  502 -3.5721722657e+01 +7.2637213871e+01 +1.8305881533e+02 2.0021195314e+02 4.7000000000e+00 0.0000e+00 1.0000e+00
</event>
<event>
12      1 +3.3740700e+00 2.72964400e+02 7.54677100e-03 1.09962700e-01
       21 -1    0    0  503  502 +0.0000000000e+00 +0.0000000000e+00 +1.4707597283e+02 1.4707597283e+02 0.0000000000e+00 0.0000e+00 1.0000e+00
       21 -1    0    0  501  503 -0.0000000000e+00 -0.0000000000e+00 -8.0824092669e+02 8.0824092669e+02 0.0000000000e+00 0.0000e+00 -1.0000e+00
        6  2    1    2  501    0 -9.7338543127e+01 +1.8721516837e+02 -6.2267676816e+02 6.7987933733e+02 1.7316247996e+02 0.0000e+00 0.0000e+00
       24  2    3    3    0    0 -3.8558866866e+01 +2.4534913573e+01 -2.9936586198e+02 3.1317516814e+02 7.9812395161e+01 0.0000e+00 0.0000e+00
       -6  2    1    2    0  502 +9.7338543127e+01 -1.8721516837e+02 -3.8488185686e+01 2.7543756219e+02 1.7280103872e+02 0.0000e+00 0.0000e+00
      -24  2    5    5    0    0 +2.4940911825e+01 -7.5861931987e+01 -7.6975769906e+01 1.3707447314e+02 8.0542288442e+01 0.0000e+00 0.0000e+00
       12  1    4    4    0    0 -5.5835358166e+01 +3.7373147313e+01 -2.5722779621e+02 2.6585800441e+02 0.0000000000e+00 0.0000e+00 -1.0000e+00
      -11  1    4    4    0    0 +1.7276491300e+01 -1.2838233740e+01 -4.2138065768e+01 4.7317163734e+01 0.0000000000e+00 0.0000e+00 1.0000e+00
      -12  1    6    6    0    0 -2.8261034261e+01 -2.7990696799e+01 -1.5370330224e+01 4.2642844839e+01 0.0000000000e+00 0.0000e+00 1.0000e+00
       11  1    6    6    0    0 +5.3201946086e+01 -4.7871235188e+01 -6.1605439682e+01 9.4431628304e+01 0.0000000000e+00 0.0000e+00 -1.0000e+00
        5  1    3    3  501    0 -5.8779676261e+01 +1.6268025480e+02 -3.2331090618e+02 3.6670416919e+02 4.7000000000e+00 0.0000e+00 -1.0000e+00
       -5  1    5    5    0  502 +7.2397631302e+01 -1.1135323639e+02 +3.8487584220e+01 1.3836308905e+02 4.7000000000e+00 0.0000e+00 1.0000e+00
</event>
<event>
12      1 +3.3740700e+00 1.94865600e+02 7.54677100e-03 1.15414500e-01
        2 -1    0    0  502    0 +0.0000000000e+00 +0.0000000000e+00 +5.8467920840e+02 5.8467920840e+02 0.0000000000e+00 0.0000e+00 1.0000e+00
       -2 -1    0    0    0  501 -0.0000000000e+00 -0.0000000000e+00 -7.3489179677e+01 7.3489179677e+01 0.0000000000e+00 0.0000e+00 -1.0000e+00
        6  2    1    2  502    0 -3.8165624651e+01 -7.8131987295e+01 +3.6589921335e+02 4.1380259459e+02 1.7259527982e+02 0.0000e+00 0.0000e+00
       24  2    3    3    0    0 +1.8742218941e+01 -7.3742754527e+01 +1.2147323821e+02 1.6275695063e+02 7.7102611899e+01 0.0000e+00 0.0000e+00
       -6  2    1    2    0  501 +3.8165624651e+01 +7.8131987295e+01 +1.4529081537e+02 2.4436579349e+02 1.7619306925e+02 0.0000e+00 0.0000e+00
      -24  2    5    5    0    0 +8.2050921082e+01 +6.1296608120e+00 +8.1655819769e+01 1.3862196659e+02 7.6016118861e+01 0.0000e+00 0.0000e+00
       12  1    4    4    0    0 +4.2851483627e+01 -3.9739031818e+01 +3.8738716349e+01 7.0115108523e+01 0.0000000000e+00 0.0000e+00 -1.0000e+00
      -11  1    4    4    0    0 -2.4109264686e+01 -3.4003722709e+01 +8.2734521857e+01 9.2641842106e+01 0.0000000000e+00 0.0000e+00 1.0000e+00
      -14  1    6    6    0    0 +7.0417639373e+01 -2.7987900394e+01 +5.1437078199e+01 9.1584603056e+01 0.0000000000e+00 0.0000e+00 1.0000e+00
       13  1    6    6    0    0 +1.1633281709e+01 +3.4117561206e+01 +3.0218741570e+01 4.7037363532e+01 0.0000000000e+00 0.0000e+00 -1.0000e+00
        5  1    3    3  502    0 -5.6907843591e+01 -4.3892327683e+00 +2.4442597514e+02 2.5104564396e+02 4.7000000000e+00 0.0000e+00 -1.0000e+00
       -5  1    5    5    0  501 -4.3885296431e+01 +7.2002326483e+01 +6.3634995600e+01 1.0574382690e+02 4.7000000000e+00 0.0000e+00 1.0000e+00
</event>
<event>
12      1 +3.3740700e+00 2.91300200e+02 7.54677100e-03 1.08967200e-01
       -2 -1    0    0    0  501 -0.0000000000e+00 +0.0000000000e+00 +1.4383333631e+02 1.4383333631e+02 0.0000000000e+00 0.0000e+00 -1.0000e+00
        2 -1    0    0  502    0 +0.0000000000e+00 -0.0000000000e+00 -6.0288048942e+02 6.0288048942e+02 0.0000000000e+00 0.0000e+00 1.0000e+00
        6  2    1    2  502    0 +2.1883619761e+02 -8.3201161321e+01 -1.7495698131e+02 3.3990485233e+02 1.7353284617e+02 0.0000e+00 0.0000e+00
       24  2    3    3    0    0 +1.4215391981e+02 +9.8749061135e+00 -1.3994561454e+02 2.1424176363e+02 7.7521013723e+01 0.0000e+00 0.0000e+00
       -6  2    1    2    0  501 -2.1883619761e+02 +8.3201161321e+01 -2.8409017180e+02 4.0680897339e+02 1.7313174317e+02 0.0000e+00 0.0000e+00
      -24  2    5    5    0    0 -7.7074928539e+01 +9.6445412513e+01 -1.3861809796e+02 2.0320179802e+02 8.2666386345e+01 0.0000e+00 0.0000e+00
       14  1    4    4    0    0 +1.2269783828e+01 +2.0517375387e+01 -5.1398856484e+01 5.6686442257e+01 0.0000000000e+00 0.0000e+00 -1.0000e+00
      -13  1    4    4    0    0 +1.2988413598e+02 -1.0642469273e+01 -8.8546758052e+01 1.5755532138e+02 0.0000000000e+00 0.0000e+00 1.0000e+00
      -14  1    6    6    0    0 -9.4074224202e+01 +8.9945659925e+01 -1.1777160156e+02 1.7552871996e+02 0.0000000000e+00 0.0000e+00 1.0000e+00
       13  1    6    6    0    0 +1.6999295663e+01 +6.4997525875e+00 -2.0846496402e+01 2.7673078054e+01 0.0000000000e+00 0.0000e+00 -1.0000e+00
        5  1    3    3  502    0 +7.6682277798e+01 -9.3076067434e+01 -3.5011366780e+01 1.2566308870e+02 4.7000000000e+00 0.0000e+00 -1.0000e+00
       -5  1    5    5    0  501 -1.4176126907e+02 -1.3244251192e+01 -1.4547207384e+02 2.0360717538e+02 4.7000000000e+00 0.0000e+00 1.0000e+00
</event>
<event>
11      1 +3.3740700e+00 2.83953700e+02 7.54677100e-03 1.09897700e-01
       21 -1    0    0  501  502 +0.0000000000e+00 +0.0000000000e+00 +1.2572215465e+03 1.2572215465e+03 0.0000000000e+00 0.0000e+00 -1.0000e+00
       21 -1    0    0  502  503 -0.0000000000e+00 -0.0000000000e+00 -5.6385703353e+01 5.6385703353e+01 0.0000000000e+00 0.0000e+00 1.0000e+00
      -24  2    1    2    0    0 +1.1433044810e+01 +1.3987025140e+02 +5.1066990984e+02 5.3858603541e+02 9.7963049084e+01 0.0000e+00 0.0000e+00
        6  2    1    2  501    0 -9.3861171089e+01 -1.4850559744e+02 +6.1693962419e+02 6.6432727805e+02 1.7277847249e+02 0.0000e+00 0.0000e+00
       24  2    4    4    0    0 -6.5199274046e+01 -2.7541574894e+01 +1.7166819232e+02 2.0200429881e+02 7.9537945662e+01 0.0000e+00 0.0000e+00
       12  1    5    5    0    0 -6.6314709742e+00 +1.9642025045e+01 +8.6314059476e+00 2.2456329259e+01 0.0000000000e+00 0.0000e+00 -1.0000e+00
      -11  1    5    5    0    0 -5.8567803071e+01 -4.7183599939e+01 +1.6303678637e+02 1.7954796955e+02 0.0000000000e+00 0.0000e+00 1.0000e+00
      -14  1    3    3    0    0 +4.5931270733e+01 +6.1097235244e+01 +3.2649986441e+02 3.3532777285e+02 0.0000000000e+00 0.0000e+00 1.0000e+00
       13  1    3    3    0    0 -3.4498225923e+01 +7.8773016154e+01 +1.8417004543e+02 2.0325826256e+02 0.0000000000e+00 0.0000e+00 -1.0000e+00
        5  1    4    4  501    0 -2.8661897044e+01 -1.2096402255e+02 +4.4527143187e+02 4.6232297924e+02 4.7000000000e+00 0.0000e+00 -1.0000e+00
       -5  1    1    2    0  503 +8.2428126280e+01 +8.6353460438e+00 +7.3226309073e+01 1.1069393635e+02 4.7000000000e+00 0.0000e+00 1.0000e+00
</event>
<event>
12      1 +3.3740700e+00 2.16924800e+02 7.54677100e-03 1.13623900e-01
       21 -1    0    0  503  502 +0.0000000000e+00 +0.0000000000e+00 +4.2004999871e+02 4.2004999871e+02 0.0000000000e+00 0.0000e+00 1.0000e+00
       21 -1    0    0  501  503 -0.0000000000e+00 -0.0000000000e+00 -1.1462230504e+02 1.1462230504e+02 0.0000000000e+00 0.0000e+00 1.0000e+00
        6  2    1    2  501    0 -2.3293823250e+01 -1.2832107883e+02 +1.1152171359e+02 2.4371540225e+02 1.7306415925e+02 0.0000e+00 0.0000e+00
       24  2    3    3    0    0 -3.4070114478e+00 -1.5688968501e+00 +7.8013120193e+01 1.1102585198e+02 7.8908958431e+01 0.0000e+00 0.0000e+00
       -6  2    1    2    0  502 +2.3293823250e+01 +1.2832107883e+02 +1.9390598008e+02 2.9095690150e+02 1.7334211244e+02 0.0000e+00 0.0000e+00
      -24  2    5    5    0    0 +3.2042011768e+01 +2.0864372133e+01 +1.4615758314e+02 1.7295065579e+02 8.4189534304e+01 0.0000e+00 0.0000e+00
       14  1    4    4    0    0 -3.0229791569e+01 +2.5223928665e+01 +5.1213655841e+01 6.4598184342e+01 0.0000000000e+00 0.0000e+00 -1.0000e+00
      -13  1    4    4    0    0 +2.6822780121e+01 -2.6792825515e+01 +2.6799464351e+01 4.6427667635e+01 0.0000000000e+00 0.0000e+00 1.0000e+00
      -12  1    6    6    0    0 +4.2536950589e+01 +4.6292675919e+01 +1.1727968834e+02 1.3306738634e+02 0.0000000000e+00 0.0000e+00 1.0000e+00
       11  1    6    6    0    0 -1.0494938820e+01 -2.5428303786e+01 +2.8877894798e+01 3.9883269453e+01 0.0000000000e+00 0.0000e+00 -1.0000e+00
        5  1    3    3  501    0 -1.9886811802e+01 -1.2675218198e+02 +3.3508593398e+01 1.3268955027e+02 4.7000000000e+00 0.0000e+00 -1.0000e+00
       -5  1    5    5    0  502 -8.7481885183e+00 +1.0745670669e+02 +4.7748396941e+01 1.1800624571e+02 4.7000000000e+00 0.0000e+00 1.0000e+00
</event>
<event>
12      1 +3.3740700e+00 1.81027600e+02 7.54677100e-03 1.16727400e-01
       21 -1    0    0  503  502 +0.0000000000e+00 +0.0000000000e+00 +4.4659824849e+02 4.4659824849e+02 0.0000000000e+00 0.0000e+00 1.0000e+00
       21 -1    0    0  501  503 -0.0000000000e+00 -0.0000000000e+00 -7.5760423852e+01 7.5760423852e+01 0.0000000000e+00 0.0000e+00 1.0000e+00
        6  2    1    2  501    0 +4.8207033011e+01 +2.2311769406e+01 +1.3118660144e+02 2.2201937064e+02 1.7105830426e+02 0.0000e+00 0.0000e+00
       24  2    3    3    0    0 +4.3937537268e+01 +6.1718195118e+01 +3.1871479975e+01 1.1498349660e+02 8.0410014700e+01 0.0000e+00 0.0000e+00
       -6  2    1    2    0  502 -4.8207033011e+01 -2.2311769406e+01 +2.3965122320e+02 3.0033930170e+02 1.7305852848e+02 0.0000e+00 0.0000e+00
      -24  2    5    5    0    0 -8.9537430490e+01 -1.3183483475e+01 +2.2253017670e+02 2.5443998152e+02 8.3840735675e+01 0.0000e+00 0.0000e+00
       14  1    4    4    0    0 +6.6958946891e+01 +3.6247434866e+01 +2.1472580259e+01 7.9110358399e+01 0.0000000000e+00 0.0000e+00 -1.0000e+00
      -13  1    4    4    0    0 -2.3021409623e+01 +2.5470760252e+01 +1.0398899716e+01 3.5873138197e+01 0.0000000000e+00 0.0000e+00 1.0000e+00
      -12  1    6    6    0    0 -1.0427609384e+02 -2.5618149145e+00 +1.7744204283e+02 2.0582940802e+02 0.0000000000e+00 0.0000e+00 1.0000e+00
       11  1    6    6    0    0 +1.4738663347e+01 -1.0621668561e+01 +4.5088133865e+01 4.8610573497e+01 0.0000000000e+00 0.0000e+00 -1.0000e+00
        5  1    3    3  501    0 +4.2694957432e+00 -3.9406425712e+01 +9.9315121463e+01 1.0703587404e+02 4.7000000000e+00 0.0000e+00 -1.0000e+00
       -5  1    5    5    0  502 +4.1330397479e+01 -9.1282859309e+00 +1.7121046498e+01 4.5899320180e+01 4.7000000000e+00 0.0000e+00 1.0000e+00
</event>
<event>
12      1 +3.3740700e+00 3.46483100e+02 7.54677100e-03 1.06407700e-01
       21 -1    0    0  503  502 +0.0000000000e+00 +0.0000000000e+00 +3.0288800915e+02 3.0288800915e+02 0.0000000000e+00 0.0000e+00 -1.0000e+00
       21 -1    0    0  501  503 -0.0000000000e+00 -0.0000000000e+00 -5.1193956257e+02 5.1193956257e+02 0.0000000000e+00 0.0000e+00 1.0000e+00
        6  2    1    2  501    0 +3.3346694551e+01 -2.9825984775e+02 -2.9818479898e+02 4.5706332394e+02 1.7297909968e+02 0.0000e+00 0.0000e+00
       24  2    3    3    0    0 +3.4360459401e+00 -9.8493160286e+01 -1.8845546523e+02 2.2714161333e+02 7.9781834380e+01 0.0000e+00 0.0000e+00
       -6  2    1    2    0  502 -3.3346694551e+01 +2.9825984775e+02 +8.9133245552e+01 3.5776424779e+02 1.7314613109e+02 0.0000e+00 0.0000e+00
      -24  2    5    5    0    0 +3.7373896113e+01 +1.2117443941e+02 +7.1487752205e+01 1.6620721391e+02 8.0214003538e+01 0.0000e+00 0.0000e+00
       12  1    4    4    0    0 -1.4455809294e+01 -8.8254086799e+01 -1.8599854065e+02 2.0638122827e+02 0.0000000000e+00 0.0000e+00 -1.0000e+00
      -11  1    4    4    0    0 +1.7891855234e+01 -1.0239073487e+01 -2.4569245843e+00 2.0760385064e+01 0.0000000000e+00 0.0000e+00 1.0000e+00
      -14  1    6    6    0    0 +1.9772030914e+01 +9.8228461697e+01 +1.3101858515e+01 1.0105158381e+02 0.0000000000e+00 0.0000e+00 1.0000e+00
       13  1    6    6    0    0 +1.7601865199e+01 +2.2945977709e+01 +5.8385893690e+01 6.5155630098e+01 0.0000000000e+00 0.0000e+00 -1.0000e+00
        5  1    3    3  501    0 +2.9910648611e+01 -1.9976668747e+02 -1.0972933375e+02 2.2992171060e+02 4.7000000000e+00 0.0000e+00 -1.0000e+00
       -5  1    5    5    0  502 -7.0720590664e+01 +1.7708540835e+02 +1.7645493347e+01 1.9155703388e+02 4.7000000000e+00 0.0000e+00 1.0000e+00
</event>
<event>
12      1 +3.3740700e+00 2.06195300e+02 7.54677100e-03 1.14468300e-01
       21 -1    0    0  503  502 +0.0000000000e+00 +0.0000000000e+00 +9.6906465556e+01 9.6906465556e+01 0.0000000000e+00 0.0000e+00 -1.0000e+00
       21 -1    0    0  501  503 -0.0000000000e+00 -0.0000000000e+00 -4.3883481885e+02 4.3883481885e+02 0.0000000000e+00 0.0000e+00 -1.0000e+00
        6  2    1    2  501    0 -1.0780299343e+02 +2.6196622480e+01 -1.5961612331e+02 2.6075620572e+02 1.7380662697e+02 0.0000e+00 0.0000e+00
       24  2    3    3    0    0 -3.7319103923e+01 +1.1288227811e+01 -4.6821455334e+00 8.9826786421e+01 8.0788547872e+01 0.0000e+00 0.0000e+00
       -6  2    1    2    0  502 +1.0780299343e+02 -2.6196622480e+01 -1.8231222998e+02 2.7498507869e+02 1.7341077209e+02 0.0000e+00 0.0000e+00
      -24  2    5    5    0    0 +2.7206383253e+01 +3.9856529918e+00 -1.3545540213e+01 8.5482918008e+01 7.9798338906e+01 0.0000e+00 0.0000e+00
       14  1    4    4    0    0 +7.0750905390e+00 +4.9681851132e+00 -3.4768372793e+01 3.5827077974e+01 0.0000000000e+00 0.0000e+00 -1.0000e+00
      -13  1    4    4    0    0 -4.4394194462e+01 +6.3200426977e+00 +3.0086227260e+01 5.3999708447e+01 0.0000000000e+00 0.0000e+00 1.0000e+00
      -12  1    6    6    0    0 -1.3387261776e+01 -1.1265397752e+01 +2.2912747795e+01 2.8829186181e+01 0.0000000000e+00 0.0000e+00 1.0000e+00
       11  1    6    6    0    0 +4.0593645028e+01 +1.5251050743e+01 -3.6458288008e+01 5.6653731827e+01 0.0000000000e+00 0.0000e+00 -1.0000e+00
        5  1    3    3  501    0 -7.0483889511e+01 +1.4908394669e+01 -1.5493397778e+02 1.7092941930e+02 4.7000000000e+00 0.0000e+00 -1.0000e+00
       -5  1    5    5    0  502 +8.0596610181e+01 -3.0182275471e+01 -1.6876668977e+02 1.8950216068e+02 4.7000000000e+00 0.0000e+00 1.0000e+00
</event>
<event>
12      1 +3.3740700e+00 1.97331700e+02 7.54677100e-03 1.15255400e-01
       21 -1    0    0  503  502 +0.0000000000e+00 +0.0000000000e+00 +4.2750978406e+02 4.2750978406e+02 0.0000000000e+00 0.0000e+00 -1.0000e+00
       21 -1    0    0  501  503 -0.0000000000e+00 -0.0000000000e+00 -1.4970570147e+02 1.4970570147e+02 0.0000000000e+00 0.0000e+00 -1.0000e+00
        6  2    1    2  501    0 -8.1660667516e+01 -3.9329109074e+01 -4.2933912428e+01 2.0194835102e+02 1.7528426115e+02 0.0000e+00 0.0000e+00
       24  2    3    3    0    0 -1.1775037458e+02 -1.9189857081e+01 -2.8111837127e+00 1.4415579280e+02 8.0867722326e+01 0.0000e+00 0.0000e+00
       -6  2    1    2    0  502 +8.1660667516e+01 +3.9329109074e+01 +3.2073799501e+02 3.7526713451e+02 1.7244511404e+02 0.0000e+00 0.0000e+00
      -24  2    5    5    0    0 +1.2877162732e+01 -3.7537575331e+01 +1.8499537825e+02 2.0471565926e+02 7.8168537736e+01 0.0000e+00 0.0000e+00
       12  1    4    4    0    0 -3.0889131356e+01 +2.6276212201e+00 -3.7019652063e+01 4.8285582403e+01 0.0000000000e+00 0.0000e+00 -1.0000e+00
      -11  1    4    4    0    0 -8.6861243225e+01 -2.1817478302e+01 +3.4208468350e+01 9.5870210394e+01 0.0000000000e+00 0.0000e+00 1.0000e+00
      -14  1    6    6    0    0 +1.4610081943e+01 -6.0865167594e+01 +1.1523419689e+02 1.3113711623e+02 0.0000000000e+00 0.0000e+00 1.0000e+00
       13  1    6    6    0    0 -1.7329192116e+00 +2.3327592263e+01 +6.9761181366e+01 7.3578543037e+01 0.0000000000e+00 0.0000e+00 -1.0000e+00
        5  1    3    3  501    0 +3.6089707065e+01 -2.0139251993e+01 -4.0122728715e+01 5.7792558227e+01 4.7000000000e+00 0.0000e+00 -1.0000e+00
       -5  1    5    5    0  502 +6.8783504785e+01 +7.6866684405e+01 +1.3574261676e+02 1.7055147524e+02 4.7000000000e+00 0.0000e+00 1.0000e+00
</event>
<event>
12      1 +3.3740700e+00 3.05224700e+02 7.54677100e-03 1.08266900e-01
       21 -1    0    0  503  502 +0.0000000000e+00 +0.0000000000e+00 +5.9483914676e+02 5.9483914676e+02 0.0000000000e+00 0.0000e+00 -1.0000e+00
       21 -1    0    0  501  503 -0.0000000000e+00 -0.0000000000e+00 -1.7098316704e+02 1.7098316704e+02 0.0000000000e+00 0.0000e+00 -1.0000e+00
        6  2    1    2  501    0 -1.4788698018e+02 +2.0303971652e+02 +1.0071731683e+02 3.2132176749e+02 1.7322821641e+02 0.0000e+00 0.0000e+00
       24  2    3    3    0    0 -2.0706456140e+01 +1.4928573312e+02 +5.3842514747e+01 1.7543237961e+02 7.1850650518e+01 0.0000e+00 0.0000e+00
       -6  2    1    2    0  502 +1.4788698018e+02 -2.0303971652e+02 +3.2313866289e+02 4.4450054631e+02 1.7339681317e+02 0.0000e+00 0.0000e+00
      -24  2    5    5    0    0 +5.6692220244e+01 -6.0662384329e+01 +2.1983202300e+02 2.4630331926e+02 7.3792100082e+01 0.0000e+00 0.0000e+00
       14  1    4    4    0    0 +8.9069088588e+00 -3.6636993452e+00 +9.3277348440e+00 1.3407548457e+01 0.0000000000e+00 0.0000e+00 -1.0000e+00
      -13  1    4    4    0    0 -2.9613364999e+01 +1.5294943247e+02 +4.4514779903e+01 1.6202483115e+02 0.0000000000e+00 0.0000e+00 1.0000e+00
      -14  1    6    6    0    0 +4.0503598030e-01 -3.7422923759e+01 +1.4537537880e+02 1.5011542238e+02 0.0000000000e+00 0.0000e+00 1.0000e+00
       13  1    6    6    0    0 +5.6287184264e+01 -2.3239460570e+01 +7.4456644200e+01 9.6187896877e+01 0.0000000000e+00 0.0000e+00 -1.0000e+00
        5  1    3    3  501    0 -1.2718052404e+02 +5.3753983401e+01 +4.6874802086e+01 1.4588938789e+02 4.7000000000e+00 0.0000e+00 -1.0000e+00
       -5  1    5    5    0  502 +9.1194759938e+01 -1.4237733219e+02 +1.0330663989e+02 1.9819722704e+02 4.7000000000e+00 0.0000e+00 1.0000e+00
</event>
<event>
12      1 +3.3740700e+00 1.80425800e+02 7.54677100e-03 1.16749000e-01
       21 -1    0    0  501  502 +0.0000000000e+00 +0.0000000000e+00 +2.8831251322e+02 2.8831251322e+02 0.0000000000e+00 0.0000e+00 1.0000e+00
       21 -1    0    0  502  503 -0.0000000000e+00 -0.0000000000e+00 -1.1272815888e+02 1.1272815888e+02 0.0000000000e+00 0.0000e+00 1.0000e+00
       -6  2    1    2    0  503 -3.9881071069e+01 +3.0547848260e+01 +9.2947152515e+01 2.0295974138e+02 1.7329112094e+02 0.0000e+00 0.0000e+00
      -24  2    3    3    0    0 -6.4134832001e+01 +7.4433754494e+01 +4.4862779615e+01 1.3332918342e+02 7.8168674491e+01 0.0000e+00 0.0000e+00
        6  2    1    2  501    0 +3.9881071069e+01 -3.0547848260e+01 +8.2637201818e+01 1.9808093072e+02 1.7286838094e+02 0.0000e+00 0.0000e+00
       24  2    5    5    0    0 -1.1808926674e+01 +1.4482321690e+01 -1.1035664698e+01 8.1907491443e+01 7.8980142241e+01 0.0000e+00 0.0000e+00
       12  1    6    6    0    0 -9.9453060558e+00 +2.4161928745e+00 +3.3864342751e+01 3.5377122700e+01 0.0000000000e+00 0.0000e+00 -1.0000e+00
      -11  1    6    6    0    0 -1.8636206177e+00 +1.2066128816e+01 -4.4900007449e+01 4.6530368743e+01 0.0000000000e+00 0.0000e+00 1.0000e+00
      -12  1    4    4    0    0 -7.8950513307e+01 +7.7253571125e+01 +4.0108966193e+01 1.1751607112e+02 0.0000000000e+00 0.0000e+00 1.0000e+00
       11  1    4    4    0    0 +1.4815681305e+01 -2.8198166308e+00 +4.7538134220e+00 1.5813112294e+01 0.0000000000e+00 0.0000e+00 -1.0000e+00
        5  1    5    5  501    0 +5.1689997743e+01 -4.5030169950e+01 +9.3672866516e+01 1.1617343928e+02 4.7000000000e+00 0.0000e+00 -1.0000e+00
       -5  1    3    3    0  503 +2.4253760932e+01 -4.3885906234e+01 +4.8084372900e+01 6.9630557965e+01 4.7000000000e+00 0.0000e+00 1.0000e+00
</event>
<event>
12      1 +3.3740700e+00 2.27270600e+02 7.54677100e-03 1.12871900e-01
       21 -1    0    0  503  502 +0.0000000000e+00 +0.0000000000e+00 +2.5607944140e+02 2.5607944140e+02 0.0000000000e+00 0.0000e+00 1.0000e+00
       21 -1    0    0  501  503 -0.0000000000e+00 -0.0000000000e+00 -2.0701143599e+02 2.0701143599e+02 0.0000000000e+00 0.0000e+00 -1.0000e+00
        6  2    1    2  501    0 +7.8384928332e+01 +1.2411021265e+02 +6.3969675259e+01 2.3533228347e+02 1.7245759599e+02 0.0000e+00 0.0000e+00
       24  2    3    3    0    0 +1.0607045145e+02 +1.3978159534e+02 +5.9142758936e+01 2.0281352662e+02 8.2738295741e+01 0.0000e+00 0.0000e+00
       -6  2    1    2    0  502 -7.8384928332e+01 -1.2411021265e+02 -1.4901669847e+01 2.2775859392e+02 1.7350612516e+02 0.0000e+00 0.0000e+00
      -24  2    5    5    0    0 -7.9713354276e+01 -8.4482882209e+01 +5.1351933078e+01 1.5040408576e+02 8.0577861385e+01 0.0000e+00 0.0000e+00
       14  1    4    4    0    0 +9.4834802591e+01 +7.7922943601e+01 +1.0250458166e+01 1.2316938262e+02 0.0000000000e+00 0.0000e+00 -1.0000e+00
      -13  1    4    4    0    0 +1.1235648854e+01 +6.1858651735e+01 +4.8892300770e+01 7.9644144005e+01 0.0000000000e+00 0.0000e+00 1.0000e+00
      -14  1    6    6    0    0 -5.1747214707e+01 -5.7071764784e+01 +7.2594993988e+01 1.0585364291e+02 0.0000000000e+00 0.0000e+00 1.0000e+00
       13  1    6    6    0    0 -2.7966139570e+01 -2.7411117425e+01 -2.1243060911e+01 4.4550442846e+01 0.0000000000e+00 0.0000e+00 -1.0000e+00
        5  1    3    3  501    0 -2.7685523113e+01 -1.5671382690e+01 +4.8269163236e+00 3.2518756843e+01 4.7000000000e+00 0.0000e+00 -1.0000e+00
       -5  1    5    5    0  502 +1.3284259440e+00 -3.9627330438e+01 -6.6253602925e+01 7.7354508166e+01 4.7000000000e+00 0.0000e+00 1.0000e+00
</event>
<event>
12      1 +3.3740700e+00 1.83512000e+02 7.54677100e-03 1.16444700e-01
       -1 -1    0    0    0  501 -0.0000000000e+00 +0.0000000000e+00 +6.1456478287e+01 6.1456478287e+01 0.0000000000e+00 0.0000e+00 -1.0000e+00
        1 -1    0    0  502    0 +0.0000000000e+00 -0.0000000000e+00 -5.4868136449e+02 5.4868136449e+02 0.0000000000e+00 0.0000e+00 1.0000e+00
        6  2    1    2  502    0 -2.7467065247e+01 -7.3282422800e+01 -2.5481665861e+02 3.1785365174e+02 1.7313191863e+02 0.0000e+00 0.0000e+00
       24  2    3    3    0    0 -5.4080290457e+00 +2.9074220170e+01 -1.1484761482e+02 1.4299111527e+02 7.9886966146e+01 0.0000e+00 0.0000e+00
       -6  2    1    2    0  501 +2.7467065247e+01 +7.3282422800e+01 -2.3240822759e+02 2.9228419104e+02 1.5903367856e+02 0.0000e+00 0.0000e+00
      -24  2    5    5    0    0 +7.6837370943e+01 +4.9724819776e+01 -1.5299273862e+02 1.9573732350e+02 8.0807069392e+01 0.0000e+00 0.0000e+00
       12  1    4    4    0    0 +2.0747744863e+01 +4.4612089676e+01 -4.4470953728e+01 6.6320232114e+01 0.0000000000e+00 0.0000e+00 -1.0000e+00
      -11  1    4    4    0    0 -2.6155773909e+01 -1.5537869506e+01 -7.0376661096e+01 7.6670883161e+01 0.0000000000e+00 0.0000e+00 1.0000e+00
      -12  1    6    6    0    0 +5.4487235734e+01 +6.0213825189e+01 -1.5038630669e+02 1.7091110216e+02 0.0000000000e+00 0.0000e+00 1.0000e+00
       11  1    6    6    0    0 +2.2350135209e+01 -1.0489005413e+01 -2.6064319305e+00 2.4826221336e+01 0.0000000000e+00 0.0000e+00 -1.0000e+00
        5  1    3    3  502    0 -2.2059036201e+01 -1.0235664297e+02 -1.3996904379e+02 1.7486253646e+02 4.7000000000e+00 0.0000e+00 -1.0000e+00
       -5  1    5    5    0  501 -4.9370305696e+01 +2.3557603023e+01 -7.9415488963e+01 9.6546867541e+01 4.7000000000e+00 0.0000e+00 1.0000e+00
</event>
<event>
12      1 +3.3740700e+00 1.87468400e+02 7.54677100e-03 1.16127500e-01
       21 -1    0    0  501  502 +0.0000000000e+00 +0.0000000000e+00 +4.6419814492e+02 4.6419814492e+02 0.0000000000e+00 0.0000e+00 -1.0000e+00
       21 -1    0    0  502  503 -0.0000000000e+00 -0.0000000000e+00 -1.1136296173e+02 1.1136296173e+02 0.0000000000e+00 0.0000e+00 -1.0000e+00
       -6  2    1    2    0  503 +9.1650210630e+00 +6.7846984951e+01 +1.2271921368e+01 1.8786960203e+02 1.7451984511e+02 0.0000e+00 0.0000e+00
      -24  2    3    3    0    0 -1.5846188894e+01 +1.0860972328e+02 +2.5651754217e+01 1.3798702606e+02 7.9594178008e+01 0.0000e+00 0.0000e+00
        6  2    1    2  501    0 -9.1650210630e+00 -6.7846984951e+01 +3.4056326183e+02 3.8769150462e+02 1.7214574194e+02 0.0000e+00 0.0000e+00
       24  2    5    5    0    0 -4.9584431487e+01 -8.7054870468e+01 +2.0849616025e+02 2.4816917335e+02 8.9889506845e+01 0.0000e+00 0.0000e+00
       14  1    6    6    0    0 -1.5709696158e+01 -9.6728505242e+01 +1.6801757597e+02 1.9450733692e+02 0.0000000000e+00 0.0000e+00 -1.0000e+00
      -13  1    6    6    0    0 -3.3874735329e+01 +9.6736347736e+00 +4.0478584281e+01 5.3661836427e+01 0.0000000000e+00 0.0000e+00 1.0000e+00
      -14  1    4    4    0    0 -3.5716609293e+01 +2.8365726778e+01 +3.0997927774e+01 5.5146733007e+01 0.0000000000e+00 0.0000e+00 1.0000e+00
       13  1    4    4    0    0 +1.9870420399e+01 +8.0243996498e+01 -5.3461735565e+00 8.2840293049e+01 0.0000000000e+00 0.0000e+00 -1.0000e+00
        5  1    5    5  501    0 +4.0419410424e+01 +1.9207885518e+01 +1.3206710157e+02 1.3952233127e+02 4.7000000000e+00 0.0000e+00 -1.0000e+00
       -5  1    3    3    0  503 +2.5011209957e+01 -4.0762738325e+01 -1.3379832849e+01 4.9882575979e+01 4.7000000000e+00 0.0000e+00 1.0000e+00
</event>
<event>
12      1 +3.3740700e+00 2.31022000e+02 7.54677100e-03 1.12592200e-01
       -1 -1    0    0    0  501 -0.0000000000e+00 +0.0000000000e+00 +8.0157838378e+01 8.0157838378e+01 0.0000000000e+00 0.0000e+00 -1.0000e+00
        1 -1    0    0  502    0 +0.0000000000e+00 -0.0000000000e+00 -7.1179657333e+02 7.1179657333e+02 0.0000000000e+00 0.0000e+00 1.0000e+00
        6  2    1    2  502    0 -1.1816712964e+02 +9.8585373429e+01 -2.1493145056e+02 3.1539456288e+02 1.7203387886e+02 0.0000e+00 0.0000e+00
       24  2    3    3    0    0 -1.1124321036e+02 +1.2337258826e+02 -2.2175333071e+02 2.8835801861e+02 7.9874650732e+01 0.0000e+00 0.0000e+00
       -6  2    1    2    0  501 +1.1816712964e+02 -9.8585373429e+01 -4.1670728440e+02 4.7655984883e+02 1.7257399070e+02 0.0000e+00 0.0000e+00
      -24  2    5    5    0    0 +1.0371951648e+02 +4.9183017014e+00 -2.2810815425e+02 2.6089004060e+02 7.2445534407e+01 0.0000e+00 0.0000e+00
       14  1    4    4    0    0 -9.8226969087e+01 +9.7039249203e+01 -1.2160849266e+02 1.8399396411e+02 0.0000000000e+00 0.0000e+00 -1.0000e+00
      -13  1    4    4    0    0 -1.3016241272e+01 +2.6333339055e+01 -1.0014483806e+02 1.0436405450e+02 0.0000000000e+00 0.0000e+00 1.0000e+00
      -14  1    6    6    0    0 +9.1449715698e+01 +1.1985638508e+01 -2.2882367044e+02 2.4671233894e+02 0.0000000000e+00 0.0000e+00 1.0000e+00
       13  1    6    6    0    0 +1.2269800786e+01 -7.0673368064e+00 +7.1551618855e-01 1.4177701657e+01 0.0000000000e+00 0.0000e+00 -1.0000e+00
        5  1    3    3  502    0 -6.9239192809e+00 -2.4787214829e+01 +6.8218801571e+00 2.7036544270e+01 4.7000000000e+00 0.0000e+00 -1.0000e+00
       -5  1    5    5    0  501 +1.4447613156e+01 -1.0350367513e+02 -1.8859913014e+02 2.1566980823e+02 4.7000000000e+00 0.0000e+00 1.0000e+00
</event>
<event>
12      1 +3.3740700e+00 1.85743900e+02 7.54677100e-03 1.16235700e-01
        2 -1    0    0  502    0 +0.0000000000e+00 +0.0000000000e+00 +5.8833461800e+02 5.8833461800e+02 0.0000000000e+00 0.0000e+00 1.0000e+00
       -2 -1    0    0    0  501 -0.0000000000e+00 -0.0000000000e+00 -6.6327564404e+01 6.6327564404e+01 0.0000000000e+00 0.0000e+00 -1.0000e+00
        6  2    1    2  502    0 +6.2953970708e+01 -1.9295383708e+01 +3.7264401070e+02 4.1644693116e+02 1.7386481388e+02 0.0000e+00 0.0000e+00
       24  2    3    3    0    0 +3.0084349284e+00 -4.1091802362e+01 +3.2488336888e+02 3.3662387664e+02 7.7902785883e+01 0.0000e+00 0.0000e+00
       -6  2    1    2    0  501 -6.2953970708e+01 +1.9295383708e+01 +1.4936304289e+02 2.3821525124e+02 1.7349833740e+02 0.0000e+00 0.0000e+00
      -24  2    5    5    0    0 -1.0277232432e+02 +2.8213752396e+01 +1.4583393911e+02 1.9698925025e+02 7.8606999984e+01 0.0000e+00 0.0000e+00
       14  1    4    4    0    0 +3.5234149056e+00 +2.3341679830e+01 +9.3832258990e+01 9.6756091783e+01 0.0000000000e+00 0.0000e+00 -1.0000e+00
      -13  1    4    4    0    0 -5.1497997719e-01 -6.4433482192e+01 +2.3105110989e+02 2.3986778486e+02 0.0000000000e+00 0.0000e+00 1.0000e+00
      -14  1    6    6    0    0 -5.8126558965e+01 +7.5115815405e+00 +1.3417151435e+02 1.4641419322e+02 0.0000000000e+00 0.0000e+00 1.0000e+00
       13  1    6    6    0    0 -4.4645765351e+01 +2.0702170856e+01 +1.1662424766e+01 5.0575057027e+01 0.0000000000e+00 0.0000e+00 -1.0000e+00
        5  1    3    3  502    0 +5.9945535779e+01 +2.1796418654e+01 +4.7760641817e+01 7.9823054519e+01 4.7000000000e+00 0.0000e+00 -1.0000e+00
       -5  1    5    5    0  501 +3.9818353607e+01 -8.9183686885e+00 +3.5291037799e+00 4.1226000989e+01 4.7000000000e+00 0.0000e+00 1.0000e+00
</event>
<event>
12      1 +3.3740700e+00 2.05596900e+02 7.54677100e-03 1.14569900e-01
       21 -1    0    0  503  502 +0.0000000000e+00 +0.0000000000e+00 +1.1560269430e+02 1.1560269430e+02 0.0000000000e+00 0.0000e+00 -1.0000e+00
       21 -1    0    0  501  503 -0.0000000000e+00 -0.0000000000e+00 -4.3663157628e+02 4.3663157628e+02 0.0000000000e+00 0.0000e+00 1.0000e+00
        6  2    1    2  501    0 +9.9798453735e+01 -3.7767374206e+01 -2.7487623322e+02 3.4152084961e+02 1.7231784936e+02 0.0000e+00 0.0000e+00
       24  2    3    3    0    0 +6.7760766034e+01 -8.1541067731e+01 -2.4635797434e+02 2.8005597535e+02 8.0614084816e+01 0.0000e+00 0.0000e+00
       -6  2    1    2    0  502 -9.9798453735e+01 +3.7767374206e+01 -4.6152648761e+01 2.1071342096e+02 1.7573836480e+02 0.0000e+00 0.0000e+00
      -24  2    5    5    0    0 -1.0783401040e+02 +6.8495831815e+01 -3.0287938086e+00 1.5694944470e+02 9.1126844694e+01 0.0000e+00 0.0000e+00
       12  1    4    4    0    0 +2.5291078123e+01 -8.1131648630e+01 -1.2228272062e+02 1.4891288327e+02 0.0000000000e+00 0.0000e+00 -1.0000e+00
      -11  1    4    4    0    0 +4.2469687911e+01 -4.0941910073e-01 -1.2407525372e+02 1.3114309208e+02 0.0000000000e+00 0.0000e+00 1.0000e+00
      -12  1    6    6    0    0 -2.9755397201e+01 -2.1840627955e+01 -6.5878902913e+00 3.7493959387e+01 0.0000000000e+00 0.0000e+00 1.0000e+00
       11  1    6    6    0    0 -7.8078613199e+01 +9.0336459770e+01 +3.5590964827e+00 1.1945548531e+02 0.0000000000e+00 0.0000e+00 -1.0000e+00
        5  1    3    3  501    0 +3.2037687701e+01 +4.3773693525e+01 -2.8518258879e+01 6.1464874258e+01 4.7000000000e+00 0.0000e+00 -1.0000e+00
       -5  1    5    5    0  502 +8.0355566646e+00 -3.0728457609e+01 -4.3123854952e+01 5.3763976266e+01 4.7000000000e+00 0.0000e+00 1.0000e+00
</event>
<event>
12      1 +3.3740700e+00 1.71724400e+02 7.54677100e-03 1.17609900e-01
       21 -1    0    0  503  502 +0.0000000000e+00 +0.0000000000e+00 +4.8878812882e+02 4.8878812882e+02 0.0000000000e+00 0.0000e+00 -1.0000e+00
       21 -1    0    0  501  503 -0.0000000000e+00 -0.0000000000e+00 -2.6450188012e+02 2.6450188012e+02 0.0000000000e+00 0.0000e+00 -1.0000e+00
        6  2    1    2  501    0 +1.1080330485e+00 +6.4715529860e+00 -2.1882215452e+02 2.7806970625e+02 1.7145412648e+02 0.0000e+00 0.0000e+00
       24  2    3    3    0    0 +5.8009817180e+01 +3.6077842666e+01 -1.4236583899e+02 1.7815972872e+02 8.2499134565e+01 0.0000e+00 0.0000e+00
       -6  2    1    2    0  502 -1.1080330485e+00 -6.4715529860e+00 +4.4310840322e+02 4.7522030269e+02 1.7159886464e+02 0.0000e+00 0.0000e+00
      -24  2    5    5    0    0 +1.8931729475e+01 +4.9152542647e+01 +3.6245248173e+02 3.7510487047e+02 8.0978265644e+01 0.0000e+00 0.0000e+00
       12  1    4    4    0    0 +7.5638395878e+01 +1.1553021037e+01 -9.4976995674e+01 1.2196421169e+02 0.0000000000e+00 0.0000e+00 -1.0000e+00
      -11  1    4    4    0    0 -1.7628578698e+01 +2.4524821629e+01 -4.7388843318e+01 5.6195517026e+01 0.0000000000e+00 0.0000e+00 1.0000e+00
      -12  1    6    6    0    0 -3.1984319938e+01 +1.8998443232e+01 +1.2764147202e+02 1.3295218293e+02 0.0000000000e+00 0.0000e+00 1.0000e+00
       11  1    6    6    0    0 +5.0916049413e+01 +3.0154099415e+01 +2.3481100971e+02 2.4215268754e+02 0.0000000000e+00 0.0000e+00 -1.0000e+00
        5  1    3    3  501    0 -5.6901784131e+01 -2.9606289680e+01 -7.6456315531e+01 9.9909977532e+01 4.7000000000e+00 0.0000e+00 -1.0000e+00
       -5  1    5    5    0  502 -2.0039762524e+01 -5.5624095633e+01 +8.0655921491e+01 1.0011543222e+02 4.7000000000e+00 0.0000e+00 1.0000e+00
</event>
<event>
12      1 +3.3740700e+00 2.26909700e+02 7.54677100e-03 1.12899400e-01
       21 -1    0    0  501  502 +0.0000000000e+00 +0.0000000000e+00 +1.0305053123e+03 1.0305053123e+03 0.0000000000e+00 0.0000e+00 1.0000e+00
       21 -1    0    0  502  503 -0.0000000000e+00 -0.0000000000e+00 -4.9962590318e+01 4.9962590318e+01 0.0000000000e+00 0.0000e+00 1.0000e+00
       -6  2    1    2    0  503 +1.0726002412e+02 +9.9629504357e+01 +5.2498411942e+02 5.7192336706e+02 1.7337030088e+02 0.0000e+00 0.0000e+00
      -24  2    3    3    0    0 +2.5057541138e+00 +6.6228080199e+01 +1.6086148564e+02 1.9153344257e+02 8.0101215033e+01 0.0000e+00 0.0000e+00
        6  2    1    2  501    0 -1.0726002412e+02 -9.9629504357e+01 +4.5555860252e+02 5.0854453552e+02 1.7220090989e+02 0.0000e+00 0.0000e+00
       24  2    5    5    0    0 -1.1864729992e+02 -1.9287949449e+01 +2.6650661843e+02 3.0276023538e+02 7.8668772015e+01 0.0000e+00 0.0000e+00
       14  1    6    6    0    0 -6.4834329681e+01 -4.7781385105e+00 +2.2233387791e+02 2.3164342032e+02 0.0000000000e+00 0.0000e+00 -1.0000e+00
      -13  1    6    6    0    0 -5.3812970238e+01 -1.4509810939e+01 +4.4172740523e+01 7.1116815062e+01 0.0000000000e+00 0.0000e+00 1.0000e+00
      -12  1    4    4    0    0 -3.4734971740e+01 +5.1105422384e+01 +1.1500937195e+02 1.3055817897e+02 0.0000000000e+00 0.0000e+00 1.0000e+00
       11  1    4    4    0    0 +3.7240725854e+01 +1.5122657815e+01 +4.5852113689e+01 6.0975263602e+01 0.0000000000e+00 0.0000e+00 -1.0000e+00
        5  1    5    5  501    0 +1.1387275802e+01 -8.0341554908e+01 +1.8905198409e+02 2.0578430014e+02 4.7000000000e+00 0.0000e+00 -1.0000e+00
       -5  1    3    3    0  503 +1.0475427000e+02 +3.3401424159e+01 +3.6412263378e+02 3.8038992448e+02 4.7000000000e+00 0.0000e+00 1.0000e+00
</event>
<event>
12      1 +3.3740700e+00 2.03527900e+02 7.54677100e-03 1.14761100e-01
       21 -1    0    0  501  502 +0.0000000000e+00 +0.0000000000e+00 +4.9230257742e+02 4.9230257742e+02 0.0000000000e+00 0.0000e+00 1.0000e+00
       21 -1    0    0  502  503 -0.0000000000e+00 -0.0000000000e+00 -1.1648595922e+02 1.1648595922e+02 0.0000000000e+00 0.0000e+00 1.0000e+00
       -6  2    1    2    0  503 -1.0510974091e+02 -1.7489847864e+01 +2.2287377129e+01 2.0085896515e+02 1.6880060512e+02 0.0000e+00 0.0000e+00
      -24  2    3    3    0    0 -2.2820484882e+00 +3.1785322009e+01 +6.8716412208e+00 8.5701196815e+01 7.9258824379e+01 0.0000e+00 0.0000e+00
        6  2    1    2  501    0 +1.0510974091e+02 +1.7489847864e+01 +3.5352924107e+02 4.0792957149e+02 1.7340605120e+02 0.0000e+00 0.0000e+00
       24  2    5    5    0    0 +2.2751137975e+01 -2.4352783288e+01 +2.6937706715e+02 2.8287988683e+02 7.9664005247e+01 0.0000e+00 0.0000e+00
       12  1    6    6    0    0 -1.0020050082e+01 +1.8487973947e+00 +2.0959832997e+02 2.0984584671e+02 0.0000000000e+00 0.0000e+00 -1.0000e+00
      -11  1    6    6    0    0 +3.2771188057e+01 -2.6201580683e+01 +5.9778737182e+01 7.3034040118e+01 0.0000000000e+00 0.0000e+00 1.0000e+00
      -14  1    4    4    0    0 -4.8260756769e+00 +5.5192731785e+01 -1.0566028766e+01 5.6401858233e+01 0.0000000000e+00 0.0000e+00 1.0000e+00
       13  1    4    4    0    0 +2.5440271887e+00 -2.3407409776e+01 +1.7437669987e+01 2.9299338582e+01 0.0000000000e+00 0.0000e+00 -1.0000e+00
        5  1    5    5  501    0 +8.2358602932e+01 +4.1842631152e+01 +8.4152173921e+01 1.2504968466e+02 4.7000000000e+00 0.0000e+00 -1.0000e+00
       -5  1    3    3    0  503 -1.0282769242e+02 -4.9275169873e+01 +1.5415735909e+01 1.1515776833e+02 4.7000000000e+00 0.0000e+00 1.0000e+00
</event>
<event>
12      1 +3.3740700e+00 2.02049600e+02 7.54677100e-03 1.14837800e-01
       21 -1    0    0  501  502 +0.0000000000e+00 +0.0000000000e+00 +5.1534282185e+02 5.1534282185e+02 0.0000000000e+00 0.0000e+00 -1.0000e+00
       21 -1    0    0  502  503 -0.0000000000e+00 -0.0000000000e+00 -7.9038042616e+01 7.9038042616e+01 0.0000000000e+00 0.0000e+00 -1.0000e+00
        6  2    1    2  501    0 -4.3234237662e+01 -9.1545516495e+01 +2.4060550695e+02 3.1309409351e+02 1.7287891867e+02 0.0000e+00 0.0000e+00
       24  2    3    3    0    0 +3.2155202471e+01 -1.2776093290e+01 +1.4241206968e+02 1.6628731288e+02 7.8568996623e+01 0.0000e+00 0.0000e+00
       -6  2    1    2    0  503 +4.3234237662e+01 +9.1545516495e+01 +1.9569927228e+02 2.8128677095e+02 1.7485497260e+02 0.0000e+00 0.0000e+00
      -24  2    5    5    0    0 +4.2347873531e+01 +1.1280285207e+01 +1.7882541410e+02 1.9912771738e+02 7.5846765725e+01 0.0000e+00 0.0000e+00
       14  1    4    4    0    0 +4.8692652401e+01 -3.3672691224e+01 +9.8203626107e+01 1.1466811550e+02 0.0000000000e+00 0.0000e+00 -1.0000e+00
      -13  1    4    4    0    0 -1.6537449930e+01 +2.0896597933e+01 +4.4208443572e+01 5.1619197383e+01 0.0000000000e+00 0.0000e+00 1.0000e+00
      -12  1    6    6    0    0 +5.0944301574e+01 -2.0034515447e+01 +1.2102718683e+02 1.3283178695e+02 0.0000000000e+00 0.0000e+00 1.0000e+00
       11  1    6    6    0    0 -8.5964280436e+00 +3.1314800654e+01 +5.7798227270e+01 6.6295930423e+01 0.0000000000e+00 0.0000e+00 -1.0000e+00
        5  1    3    3  501    0 -7.5389440133e+01 -7.8769423204e+01 +9.8193437273e+01 1.4680678063e+02 4.7000000000e+00 0.0000e+00 -1.0000e+00
       -5  1    5    5    0  503 +8.8636413166e-01 +8.0265231287e+01 +1.6873858181e+01 8.2159053578e+01 4.7000000000e+00 0.0000e+00 1.0000e+00
</event>
<event>
12      1 +3.3740700e+00 2.68980100e+02 7.54677100e-03 1.10186500e-01
        2 -1    0    0  502    0 +0.0000000000e+00 +0.0000000000e+00 +1.1916112817e+02 1.1916112817e+02 0.0000000000e+00 0.0000e+00 -1.0000e+00
       -2 -1    0    0    0  501 -0.0000000000e+00 -0.0000000000e+00 -6.1636763449e+02 6.1636763449e+02 0.0000000000e+00 0.0000e+00 1.0000e+00
        6  2    1    2  502    0 +4.2114057551e+01 -2.0094532457e+02 -2.9376736391e+02 3.9847549152e+02 1.7415750324e+02 0.0000e+00 0.0000e+00
       24  2    3    3    0    0 +9.2271504223e+01 -1.1551546789e+02 -1.7118968539e+02 2.4080048672e+02 8.2590024851e+01 0.0000e+00 0.0000e+00
       -6  2    1    2    0  501 -4.2114057551e+01 +2.0094532457e+02 -2.0343914241e+02 3.3705327115e+02 1.7339205754e+02 0.0000e+00 0.0000e+00
      -24  2    5    5    0    0 -4.8356362006e+01 +1.6311066919e+02 -7.3213942682e+01 2.0121837078e+02 7.8645554154e+01 0.0000e+00 0.0000e+00
       14  1    4    4    0    0 +3.3497688645e+01 +9.8086557894e-01 -6.2755164034e+01 7.1142588192e+01 0.0000000000e+00 0.0000e+00 -1.0000e+00
      -13  1    4    4    0    0 +5.8773815579e+01 -1.1649633347e+02 -1.0843452136e+02 1.6965789852e+02 0.0000000000e+00 0.0000e+00 1.0000e+00
      -14  1    6    6    0    0 -5.3055088151e+01 +9.4724727261e+01 -7.6141043888e+01 1.3260872859e+02 0.0000000000e+00 0.0000e+00 1.0000e+00
       13  1    6    6    0    0 +4.6987261450e+00 +6.8385941929e+01 +2.9271012059e+00 6.8609642197e+01 0.0000000000e+00 0.0000e+00 -1.0000e+00
        5  1    3    3  502    0 -5.0157446672e+01 -8.5429856676e+01 -1.2257767852e+02 1.5767500480e+02 4.7000000000e+00 0.0000e+00 -1.0000e+00
       -5  1    5    5    0  501 +6.2423044542e+00 +3.7834655377e+01 -1.3022519973e+02 1.3583490036e+02 4.7000000000e+00 0.0000e+00 1.0000e+00
</event>
<event>
12      1 +3.3740700e+00 1.87398600e+02 7.54677100e-03 1.16133500e-01
       21 -1    0    0  503  502 +0.0000000000e+00 +0.0000000000e+00 +1.8986374116e+02 1.8986374116e+02 0.0000000000e+00 0.0000e+00 1.0000e+00
       21 -1    0    0  501  503 -0.0000000000e+00 -0.0000000000e+00 -2.3896318382e+02 2.3896318382e+02 0.0000000000e+00 0.0000e+00 1.0000e+00
        6  2    1    2  501    0 +1.3907495849e+01 +7.2076820628e+01 -1.2859742084e+02 2.2727850588e+02 1.7242313092e+02 0.0000e+00 0.0000e+00
       24  2    3    3    0    0 +2.7869556723e+01 -1.2614142605e+00 -4.9017075150e+01 1.1806057118e+02 1.0371750794e+02 0.0000e+00 0.0000e+00
       -6  2    1    2    0  502 -1.3907495849e+01 -7.2076820628e+01 +7.9497978185e+01 2.0154841910e+02 1.7003926075e+02 0.0000e+00 0.0000e+00
      -24  2    5    5    0    0 -7.2185934877e+01 -6.3647928146e+01 +5.2847761860e+01 1.3674296629e+02 8.1510029722e+01 0.0000e+00 0.0000e+00
       14  1    4    4    0    0 -2.2941048564e+01 -3.5766983036e+01 -3.5027357750e+01 5.5067999561e+01 0.0000000000e+00 0.0000e+00 -1.0000e+00
      -13  1    4    4    0    0 +5.0810605287e+01 +3.4505568775e+01 -1.3989717401e+01 6.2992571618e+01 0.0000000000e+00 0.0000e+00 1.0000e+00
      -12  1    6    6    0    0 -8.4924307797e+01 -3.8338441042e+01 +5.5217809016e+01 1.0830965123e+02 0.0000000000e+00 0.0000e+00 1.0000e+00
       11  1    6    6    0    0 +1.2738372920e+01 -2.5309487103e+01 -2.3700471556e+00 2.8433315065e+01 0.0000000000e+00 0.0000e+00 -1.0000e+00
        5  1    3    3  501    0 -1.3962060874e+01 +7.3338234888e+01 -7.9580345689e+01 1.0921793470e+02 4.7000000000e+00 0.0000e+00 -1.0000e+00
       -5  1    5    5    0  502 +5.8278439028e+01 -8.4288924820e+00 +2.6650216325e+01 6.4805452812e+01 4.7000000000e+00 0.0000e+00 1.0000e+00
</event>
<event>
12      1 +3.3740700e+00 1.98855500e+02 7.54677100e-03 1.15072900e-01
       21 -1    0    0  501  502 +0.0000000000e+00 +0.0000000000e+00 +3.5611174375e+02 3.5611174375e+02 0.0000000000e+00 0.0000e+00 -1.0000e+00
       21 -1    0    0  502  503 -0.0000000000e+00 -0.0000000000e+00 -1.1323968632e+02 1.1323968632e+02 0.0000000000e+00 0.0000e+00 -1.0000e+00
        6  2    1    2  501    0 +3.6611760283e+01 -8.9768803275e+01 +1.5454975137e+02 2.5185141837e+02 1.7362215369e+02 0.0000e+00 0.0000e+00
       24  2    3    3    0    0 -1.3512748666e+01 -1.0371591193e+02 +1.4948803775e+02 1.9936619014e+02 8.0377979430e+01 0.0000e+00 0.0000e+00
       -6  2    1    2    0  503 -3.6611760283e+01 +8.9768803275e+01 +8.8322306053e+01 2.1750001170e+02 1.7351243849e+02 0.0000e+00 0.0000e+00
      -24  2    5    5    0    0 +1.4963011895e+01 +1.1527451446e+02 +5.5459640636e+01 1.5107303520e+02 7.8963186466e+01 0.0000e+00 0.0000e+00
       12  1    4    4    0    0 -1.8730251379e+01 -9.0424501873e+01 +6.3189272909e+01 1.1189413330e+02 0.0000000000e+00 0.0000e+00 -1.0000e+00
      -11  1    4    4    0    0 +5.2175027130e+00 -1.3291410062e+01 +8.6298764837e+01 8.7472056844e+01 0.0000000000e+00 0.0000e+00 1.0000e+00
      -14  1    6    6    0    0 -9.7984009957e+00 +1.1533800173e+02 +4.6374065251e+01 1.2469730243e+02 0.0000000000e+00 0.0000e+00 1.0000e+00
       13  1    6    6    0    0 +2.4761412891e+01 -6.3487275898e-02 +9.0855753848e+00 2.6375732768e+01 0.0000000000e+00 0.0000e+00 -1.0000e+00
        5  1    3    3  501    0 +5.0124508949e+01 +1.3947108659e+01 +5.0617136248e+00 5.2485228228e+01 4.7000000000e+00 0.0000e+00 -1.0000e+00
       -5  1    5    5    0  503 -5.1574772178e+01 -2.5505711183e+01 +3.2862665418e+01 6.6426976497e+01 4.7000000000e+00 0.0000e+00 1.0000e+00
</event>
<event>
12      1 +3.3740700e+00 2.25158800e+02 7.54677100e-03 1.13010300e-01
       21 -1    0    0  501  502 +0.0000000000e+00 +0.0000000000e+00 +9.0628828902e+02 9.0628828902e+02 0.0000000000e+00 0.0000e+00 -1.0000e+00
       21 -1    0    0  502  503 -0.0000000000e+00 -0.0000000000e+00 -1.6121441599e+02 1.6121441599e+02 0.0000000000e+00 0.0000e+00 -1.0000e+00
       -6  2    1    2    0  503 -1.3302711652e+02 -5.4769050153e+01 -5.8795480233e+01 2.3270880311e+02 1.7320685888e+02 0.0000e+00 0.0000e+00
      -24  2    3    3    0    0 -1.2132246912e+02 -5.3232624560e+00 -9.0677994094e+01 1.7253846672e+02 8.2459355121e+01 0.0000e+00 0.0000e+00
        6  2    1    2  501    0 +1.3302711652e+02 +5.4769050153e+01 +8.0386935327e+02 8.3479390190e+02 1.7314461857e+02 0.0000e+00 0.0000e+00
       24  2    5    5    0    0 +3.5764509645e+01 -2.8616326347e+01 +2.5990226395e+02 2.7592413177e+02 8.0541575593e+01 0.0000e+00 0.0000e+00
       14  1    6    6    0    0 +9.9779213355e+00 -2.9632250706e+00 +2.2587803791e+02 2.2611772957e+02 0.0000000000e+00 0.0000e+00 -1.0000e+00
      -13  1    6    6    0    0 +2.5786588310e+01 -2.5653101276e+01 +3.4024226048e+01 4.9806402198e+01 0.0000000000e+00 0.0000e+00 1.0000e+00
      -14  1    4    4    0    0 +2.8450638989e+00 -1.9109767037e+01 -2.4376818979e+01 3.1104772758e+01 0.0000000000e+00 0.0000e+00 1.0000e+00
       13  1    4    4    0    0 -1.2416753302e+02 +1.3786504581e+01 -6.6301175114e+01 1.4143369396e+02 0.0000000000e+00 0.0000e+00 -1.0000e+00
        5  1    5    5  501    0 +9.7262606878e+01 +8.3385376500e+01 +5.4396708932e+02 5.5886977013e+02 4.7000000000e+00 0.0000e+00 -1.0000e+00
       -5  1    3    3    0  503 -1.1704647400e+01 -4.9445787697e+01 +3.1882513860e+01 6.0170336394e+01 4.7000000000e+00 0.0000e+00 1.0000e+00
</event>
<event>
11      1 +3.3740700e+00 2.52155900e+02 7.54677100e-03 1.11202200e-01
       21 -1    0    0  503  502 +0.0000000000e+00 +0.0000000000e+00 +6.6995308678e+02 6.6995308678e+02 0.0000000000e+00 0.0000e+00 -1.0000e+00
       21 -1    0    0  501  503 -0.0000000000e+00 -0.0000000000e+00 -1.5878843819e+02 1.5878843819e+02 0.0000000000e+00 0.0000e+00 1.0000e+00
        6  2    1    2  501    0 +1.7968206376e+02 -3.7971165961e+01 -7.7408759034e+00 2.5181385366e+02 1.7211287649e+02 0.0000e+00 0.0000e+00
       24  2    3    3    0    0 +1.5622577517e+02 +2.6333900774e+01 +1.7395286357e+01 1.7874364266e+02 8.0911844915e+01 0.0000e+00 0.0000e+00
       -6  2    1    2    0  502 -1.7968206376e+02 +3.7971165961e+01 +5.1890552449e+02 5.7692767131e+02 1.7278640309e+02 0.0000e+00 0.0000e+00
       14  1    4    4    0    0 +7.9795503544e+01 -2.0974142125e+01 +3.0384851018e+01 8.7923126622e+01 0.0000000000e+00 0.0000e+00 -1.0000e+00
      -13  1    4    4    0    0 +7.6430271625e+01 +4.7308042899e+01 -1.2989564661e+01 9.0820516040e+01 0.0000000000e+00 0.0000e+00 1.0000e+00
      -12  1    5    5    0    0 -9.3388310909e+01 +9.4497759545e+01 +3.2049770099e+02 3.4694376996e+02 0.0000000000e+00 0.0000e+00 1.0000e+00
       11  1    5    5    0    0 -3.5799881583e+01 +3.8033040489e+00 +8.0223536405e+01 8.7931293840e+01 0.0000000000e+00 0.0000e+00 -1.0000e+00
        5  1    3    3  501    0 +2.3456288596e+01 -6.4305066735e+01 -2.5136162260e+01 7.3070211000e+01 4.7000000000e+00 0.0000e+00 -1.0000e+00
       -5  1    5    5    0  502 -5.0493871273e+01 -6.0329897633e+01 +1.1818428709e+02 1.4205260751e+02 4.7000000000e+00 0.0000e+00 1.0000e+00
</event>
<event>
12      1 +3.3740700e+00 2.10233100e+02 7.54677100e-03 1.14336000e-01
       21 -1    0    0  503  502 +0.0000000000e+00 +0.0000000000e+00 +2.4914127829e+02 2.4914127829e+02 0.0000000000e+00 0.0000e+00 1.0000e+00
       21 -1    0    0  501  503 -0.0000000000e+00 -0.0000000000e+00 -1.7773168015e+02 1.7773168015e+02 0.0000000000e+00 0.0000e+00 -1.0000e+00
        6  2    1    2  501    0 -1.5334216541e+01 -1.0497578309e+02 -1.0060321845e+01 2.1047362690e+02 1.8150174740e+02 0.0000e+00 0.0000e+00
       24  2    3    3    0    0 -3.5019364874e+01 -1.3951022310e+02 +1.1917962922e+01 1.6480889638e+02 7.9564289863e+01 0.0000e+00 0.0000e+00
       -6  2    1    2    0  502 +1.5334216541e+01 +1.0497578309e+02 +8.1469919986e+01 2.1639933154e+02 1.7010664183e+02 0.0000e+00 0.0000e+00
      -24  2    5    5    0    0 +3.7327722039e+01 +7.4025359433e+01 -1.1161112104e+01 1.1617837008e+02 8.0620906595e+01 0.0000e+00 0.0000e+00
       12  1    4    4    0    0 -2.2914779250e+01 -1.0092861037e+02 -2.8794414059e+01 1.0742806793e+02 0.0000000000e+00 0.0000e+00 -1.0000e+00
      -11  1    4    4    0    0 -1.2104585624e+01 -3.8581612728e+01 +4.0712376981e+01 5.7380828447e+01 0.0000000000e+00 0.0000e+00 1.0000e+00
      -12  1    6    6    0    0 +4.5955771513e+01 +3.9899305441e+01 +2.4926692937e+01 6.5766462052e+01 0.0000000000e+00 0.0000e+00 1.0000e+00
       11  1    6    6    0    0 -8.6280494740e+00 +3.4126053991e+01 -3.6087805041e+01 5.0411908032e+01 0.0000000000e+00 0.0000e+00 -1.0000e+00
        5  1    3    3  501    0 +1.9685148333e+01 +3.4534440009e+01 -2.1978284767e+01 4.5664730514e+01 4.7000000000e+00 0.0000e+00 -1.0000e+00
       -5  1    5    5    0  502 -2.1993505498e+01 +3.0950423656e+01 +9.2631032090e+01 1.0022096145e+02 4.7000000000e+00 0.0000e+00 1.0000e+00
</event>
<event>
12      1 +3.3740700e+00 1.79778500e+02 7.54677100e-03 1.16808800e-01
       21 -1    0    0  503  502 +0.0000000000e+00 +0.0000000000e+00 +5.8062263896e+02 5.8062263896e+02 0.0000000000e+00 0.0000e+00 1.0000e+00
       21 -1    0    0  501  503 -0.0000000000e+00 -0.0000000000e+00 -5.6684116498e+01 5.6684116498e+01 0.0000000000e+00 0.0000e+00 1.0000e+00
        6  2    1    2  501    0 +2.5480380295e+01 -4.2533190723e+01 +2.1718049314e+02 2.8174974279e+02 1.7250283728e+02 0.0000e+00 0.0000e+00
       24  2    3    3    0    0 -1.6135805201e+01 -5.7556355821e+01 +5.5621326940e+01 1.1417570969e+02 7.9807658582e+01 0.0000e+00 0.0000e+00
       -6  2    1    2    0  502 -2.5480380295e+01 +4.2533190723e+01 +3.0675802932e+02 3.5555701267e+02 1.7280618800e+02 0.0000e+00 0.0000e+00
      -24  2    5    5    0    0 -1.0943313956e+01 -2.9300592449e+01 +2.3269861645e+02 2.5125789792e+02 8.9462865654e+01 0.0000e+00 0.0000e+00
       14  1    4    4    0    0 -3.4031474492e+01 -9.1380668155e-01 +4.0444562126e+01 5.2865290166e+01 0.0000000000e+00 0.0000e+00 -1.0000e+00
      -13  1    4    4    0    0 +1.7895669291e+01 -5.6642549139e+01 +1.5176764813e+01 6.1310419527e+01 0.0000000000e+00 0.0000e+00 1.0000e+00
      -12  1    6    6    0    0 -1.8200042545e+01 -4.0200150941e+01 +2.3397646077e+02 2.3810140252e+02 0.0000000000e+00 0.0000e+00 1.0000e+00
       11  1    6    6    0    0 +7.2567285890e+00 +1.0899558492e+01 -1.2778443251e+00 1.3156495402e+01 0.0000000000e+00 0.0000e+00 -1.0000e+00
        5  1    3    3  501    0 +4.1616185496e+01 +1.5023165098e+01 +1.6155916620e+02 1.6757403310e+02 4.7000000000e+00 0.0000e+00 -1.0000e+00
       -5  1    5    5    0  502 -1.4537066339e+01 +7.1833783172e+01 +7.4059412867e+01 1.0429911475e+02 4.7000000000e+00 0.0000e+00 1.0000e+00
</event>
<event>
12      1 +3.3740700e+00 1.81487900e+02 7.54677100e-03 1.16654700e-01
       21 -1    0    0  501  502 +0.0000000000e+00 +0.0000000000e+00 +5.4058792882e+01 5.4058792882e+01 0.0000000000e+00 0.0000e+00 -1.0000e+00
       21 -1    0    0  502  503 -0.0000000000e+00 -0.0000000000e+00 -6.6394876749e+02 6.6394876749e+02 0.0000000000e+00 0.0000e+00 -1.0000e+00
        6  2    1    2  501    0 +5.1727299240e+01 +1.6332974514e+01 -1.9907833503e+02 2.6889281020e+02 1.7242006946e+02 0.0000e+00 0.0000e+00
       24  2    3    3    0    0 +6.6092103734e+01 -1.1100882315e+01 -4.8838849380e+01 1.1542308302e+02 8.0286107902e+01 0.0000e+00 0.0000e+00
       -6  2    1    2    0  503 -5.1727299240e+01 -1.6332974514e+01 -4.1081163957e+02 4.4911475017e+02 1.7319173211e+02 0.0000e+00 0.0000e+00
      -24  2    5    5    0    0 -2.1109251002e+01 +3.1449530424e-01 -4.0496164450e+02 4.1346484734e+02 8.0706549228e+01 0.0000e+00 0.0000e+00
       14  1    4    4    0    0 +3.8303858534e+01 -3.1146288159e+01 +7.0476034097e+00 4.9869284720e+01 0.0000000000e+00 0.0000e+00 -1.0000e+00
      -13  1    4    4    0    0 +2.7788245200e+01 +2.0045405844e+01 -5.5886452789e+01 6.5553798305e+01 0.0000000000e+00 0.0000e+00 1.0000e+00
      -12  1    6    6    0    0 +2.1589901586e+01 +2.4598340958e+01 -2.0260073930e+02 2.0522734173e+02 0.0000000000e+00 0.0000e+00 1.0000e+00
       11  1    6    6    0    0 -4.2699152588e+01 -2.4283845654e+01 -2.0236090520e+02 2.0823750562e+02 0.0000000000e+00 0.0000e+00 -1.0000e+00
        5  1    3    3  501    0 -1.4364804494e+01 +2.7433856829e+01 -1.5023948565e+02 1.5346972717e+02 4.7000000000e+00 0.0000e+00 -1.0000e+00
       -5  1    5    5    0  503 -3.0618048238e+01 -1.6647469818e+01 -5.8499950701e+00 3.5649902827e+01 4.7000000000e+00 0.0000e+00 1.0000e+00
</event>
<event>
12      1 +3.3740700e+00 2.64443200e+02 7.54677100e-03 1.10648500e-01
       21 -1    0    0  503  502 +0.0000000000e+00 +0.0000000000e+00 +1.6346436271e+02 1.6346436271e+02 0.0000000000e+00 0.0000e+00 -1.0000e+00
       21 -1    0    0  501  503 -0.0000000000e+00 -0.0000000000e+00 -4.0684501713e+02 4.0684501713e+02 0.0000000000e+00 0.0000e+00 -1.0000e+00
        6  2    1    2  501    0 +1.0851949807e+02 -1.4595187348e+02 -1.1671610599e+02 2.7709599295e+02 1.7343906445e+02 0.0000e+00 0.0000e+00
       24  2    3    3    0    0 +7.7595668899e+01 -1.3816659950e+02 -2.4510475610e+01 1.7941865692e+02 8.0493440631e+01 0.0000e+00 0.0000e+00
       -6  2    1    2    0  502 -1.0851949807e+02 +1.4595187348e+02 -1.2666454843e+02 2.9321338690e+02 1.9196810045e+02 0.0000e+00 0.0000e+00
      -24  2    5    5    0    0 -1.2913750806e+02 +9.0770811889e+01 -1.4723129713e+02 2.3064236288e+02 8.1258897498e+01 0.0000e+00 0.0000e+00
       14  1    4    4    0    0 +9.2183041173e+01 -1.2194122043e+02 -3.2322218694e+01 1.5624372032e+02 0.0000000000e+00 0.0000e+00 -1.0000e+00
      -13  1    4    4    0    0 -1.4587372275e+01 -1.6225379076e+01 +7.8117430834e+00 2.3174936592e+01 0.0000000000e+00 0.0000e+00 1.0000e+00
      -12  1    6    6    0    0 -4.4728007296e+01 +5.0611756129e+01 -1.1191487994e+02 1.3071757666e+02 0.0000000000e+00 0.0000e+00 1.0000e+00
       11  1    6    6    0    0 -8.4409500762e+01 +4.0159055760e+01 -3.5316417185e+01 9.9924786220e+01 0.0000000000e+00 0.0000e+00 -1.0000e+00
        5  1    3    3  501    0 +3.0923829170e+01 -7.7852739782e+00 -9.2205630378e+01 9.7677336035e+01 4.7000000000e+00 0.0000e+00 -1.0000e+00
       -5  1    5    5    0  502 +2.0618009989e+01 +5.5181061594e+01 +2.0566748697e+01 6.2571024016e+01 4.7000000000e+00 0.0000e+00 1.0000e+00
</event>
<event>
12      1 +3.3740700e+00 2.15019200e+02 7.54677100e-03 1.13769700e-01
       21 -1    0    0  501  502 +0.0000000000e+00 +0.0000000000e+00 +5.3088324157e+02 5.3088324157e+02 0.0000000000e+00 0.0000e+00 -1.0000e+00
       21 -1    0    0  502  503 -0.0000000000e+00 -0.0000000000e+00 -6.8407121195e+02 6.8407121195e+02 0.0000000000e+00 0.0000e+00 -1.0000e+00
       -6  2    1    2    0  503 +9.3581427970e+01 +8.8495613547e+01 -6.4413795388e+02 6.7907800785e+02 1.7217514290e+02 0.0000e+00 0.0000e+00
      -24  2    3    3    0    0 +1.9814944632e+01 +7.1089022217e+01 -5.3654978144e+02 5.4738978386e+02 7.9395380266e+01 0.0000e+00 0.0000e+00
        6  2    1    2  501    0 -9.3581427970e+01 -8.8495613547e+01 +4.9094998350e+02 5.3587644568e+02 1.7187996232e+02 0.0000e+00 0.0000e+00
       24  2    5    5    0    0 -1.3315863558e+02 -6.3642456683e+01 +3.7903383457e+02 4.1450367624e+02 7.9781359642e+01 0.0000e+00 0.0000e+00
       12  1    6    6    0    0 -1.3688523566e+02 -7.3259113611e+01 +3.3425367023e+02 3.6855119255e+02 0.0000000000e+00 0.0000e+00 -1.0000e+00
      -11  1    6    6    0    0 +3.7266000878e+00 +9.6166569286e+00 +4.4780164337e+01 4.5952483684e+01 0.0000000000e+00 0.0000e+00 1.0000e+00
      -14  1    4    4    0    0 -2.4630221699e+01 +3.2073164741e+01 -3.3225748176e+02 3.3470938126e+02 0.0000000000e+00 0.0000e+00 1.0000e+00
       13  1    4    4    0    0 +4.4445166330e+01 +3.9015857476e+01 -2.0429229968e+02 2.1268040261e+02 0.0000000000e+00 0.0000e+00 -1.0000e+00
        5  1    5    5  501    0 +3.9577207606e+01 -2.4853156865e+01 +1.1191614894e+02 1.2137276944e+02 4.7000000000e+00 0.0000e+00 -1.0000e+00
       -5  1    3    3    0  503 +7.3766483339e+01 +1.7406591330e+01 -1.0758817244e+02 1.3168822398e+02 4.7000000000e+00 0.0000e+00 1.0000e+00
</event>
<event>
12      1 +3.3740700e+00 2.61992000e+02 7.54677100e-03 1.10628200e-01
       21 -1    0    0  503  502 +0.0000000000e+00 +0.0000000000e+00 +1.4535788971e+02 1.4535788971e+02 0.0000000000e+00 0.0000e+00 1.0000e+00
       21 -1    0    0  501  503 -0.0000000000e+00 -0.0000000000e+00 -4.7191033041e+02 4.7191033041e+02 0.0000000000e+00 0.0000e+00 -1.0000e+00
        6  2    1    2  501    0 -3.5311199384e+01 +1.9230846090e+02 -1.9117371445e+02 3.2432577173e+02 1.7438575679e+02 0.0000e+00 0.0000e+00
       24  2    3    3    0    0 -9.0544641591e+01 +1.4321067728e+02 -1.4448744429e+02 2.3678707562e+02 8.0522465277e+01 0.0000e+00 0.0000e+00
       -6  2    1    2    0  502 +3.5311199384e+01 -1.9230846090e+02 -1.3537872626e+02 2.9294244839e+02 1.7105102634e+02 0.0000e+00 0.0000e+00
      -24  2    5    5    0    0 -3.4595407270e+01 -1.3323923786e+02 -4.4700429195e+01 1.6402095940e+02 7.7170007418e+01 0.0000e+00 0.0000e+00
       12  1    4    4    0    0 -4.1326452250e+01 +9.2561427247e+00 -5.0499102584e+01 6.5906837244e+01 0.0000000000e+00 0.0000e+00 -1.0000e+00
      -11  1    4    4    0    0 -4.9218189341e+01 +1.3395453456e+02 -9.3988341708e+01 1.7088023838e+02 0.0000000000e+00 0.0000e+00 1.0000e+00
      -14  1    6    6    0    0 +5.8498878668e+00 -8.7038902750e+01 +1.3870580348e+00 8.7246293388e+01 0.0000000000e+00 0.0000e+00 1.0000e+00
       13  1    6    6    0    0 -4.0445295137e+01 -4.6200335105e+01 -4.6087487230e+01 7.6774666015e+01 0.0000000000e+00 0.0000e+00 -1.0000e+00
        5  1    3    3  501    0 +5.5233442208e+01 +4.9097783619e+01 -4.6686270158e+01 8.7538696104e+01 4.7000000000e+00 0.0000e+00 -1.0000e+00
       -5  1    5    5    0  502 +6.9906606654e+01 -5.9069223047e+01 -9.0678297061e+01 1.2892148899e+02 4.7000000000e+00 0.0000e+00 1.0000e+00
</event>
<event>
12      1 +3.3740700e+00 1.98243200e+02 7.54677100e-03 1.15187400e-01
       21 -1    0    0  503  502 +0.0000000000e+00 +0.0000000000e+00 +1.8815019070e+02 1.8815019070e+02 0.0000000000e+00 0.0000e+00 -1.0000e+00
       21 -1    0    0  501  503 -0.0000000000e+00 -0.0000000000e+00 -4.3329035832e+02 4.3329035832e+02 0.0000000000e+00 0.0000e+00 -1.0000e+00
        6  2    1    2  501    0 +1.2207071235e+01 +9.0461015924e+01 -3.4818789636e+02 4.0066841987e+02 1.7597773588e+02 0.0000e+00 0.0000e+00
       24  2    3    3    0    0 +1.5835199404e+00 -2.7348637224e+01 -1.5470283959e+02 1.7384132402e+02 7.4413586592e+01 0.0000e+00 0.0000e+00
       -6  2    1    2    0  502 -1.2207071235e+01 -9.0461015924e+01 +1.0304772874e+02 2.2077212915e+02 1.7259574334e+02 0.0000e+00 0.0000e+00
      -24  2    5    5    0    0 +5.4610689669e+01 -4.5018216761e+01 +4.5455852406e+01 1.2143142556e+02 8.7580758904e+01 0.0000e+00 0.0000e+00
       14  1    4    4    0    0 -1.9834106723e+01 -2.1061737479e+01 -1.4761265156e+02 1.5042102073e+02 0.0000000000e+00 0.0000e+00 -1.0000e+00
      -13  1    4    4    0    0 +2.1417626664e+01 -6.2868997456e+00 -7.0901880210e+00 2.3420303296e+01 0.0000000000e+00 0.0000e+00 1.0000e+00
      -14  1    6    6    0    0 +5.8512036713e+01 +6.1801316781e+00 +1.1719333687e+01 5.9993293375e+01 0.0000000000e+00 0.0000e+00 1.0000e+00
       13  1    6    6    0    0 -3.9013470440e+00 -5.1198348439e+01 +3.3736518719e+01 6.1438132189e+01 0.0000000000e+00 0.0000e+00 -1.0000e+00
        5  1    3    3  501    0 +1.0623551294e+01 +1.1780965315e+02 -1.9348505677e+02 2.2682709585e+02 4.7000000000e+00 0.0000e+00 -1.0000e+00
       -5  1    5    5    0  502 -6.6817760904e+01 -4.5442799163e+01 +5.7591876338e+01 9.9340703582e+01 4.7000000000e+00 0.0000e+00 1.0000e+00
</event>
<event>
12      1 +3.3740700e+00 2.03086500e+02 7.54677100e-03 1.14731700e-01
       21 -1    0    0  501  502 +0.0000000000e+00 +0.0000000000e+00 +2.7210478274e+02 2.7210478274e+02 0.0000000000e+00 0.0000e+00 1.0000e+00
       21 -1    0    0  502  503 -0.0000000000e+00 -0.0000000000e+00 -1.5223703034e+02 1.5223703034e+02 0.0000000000e+00 0.0000e+00 1.0000e+00
       -6  2    1    2    0  503 +8.9189839305e+01 -5.4941120399e+01 +4.1023183626e+01 2.0718843627e+02 1.7398503494e+02 0.0000e+00 0.0000e+00
      -24  2    3    3    0    0 +3.8576902604e+00 +2.2360883945e+01 -4.0517819181e+00 8.3450737669e+01 8.0204225424e+01 0.0000e+00 0.0000e+00
        6  2    1    2  501    0 -8.9189839305e+01 +5.4941120399e+01 +7.8844568771e+01 2.1715337682e+02 1.7310623585e+02 0.0000e+00 0.0000e+00
       24  2    5    5    0    0 -6.0482677982e+01 -2.6854476509e+01 +1.1986680721e+01 1.0757834326e+02 8.3964886581e+01 0.0000e+00 0.0000e+00
       14  1    6    6    0    0 -6.8393636708e+00 -4.0799804961e+01 +2.7917749281e+01 4.9907932287e+01 0.0000000000e+00 0.0000e+00 -1.0000e+00
      -13  1    6    6    0    0 -5.3643314311e+01 +1.3945328451e+01 -1.5931068560e+01 5.7670410969e+01 0.0000000000e+00 0.0000e+00 1.0000e+00
      -14  1    4    4    0    0 +3.4554834244e+01 +3.5851975810e+01 -3.4777125967e+00 4.9914879785e+01 0.0000000000e+00 0.0000e+00 1.0000e+00
       13  1    4    4    0    0 -3.0697143983e+01 -1.3491091865e+01 -5.7406932134e-01 3.3535857884e+01 0.0000000000e+00 0.0000e+00 -1.0000e+00
        5  1    5    5  501    0 -2.8707161323e+01 +8.1795596909e+01 +6.6857888050e+01 1.0957503356e+02 4.7000000000e+00 0.0000e+00 -1.0000e+00
       -5  1    3    3    0  503 +8.5332149045e+01 -7.7302004344e+01 +4.5074965544e+01 1.2373769860e+02 4.7000000000e+00 0.0000e+00 1.0000e+00
</event>
<event>
12      1 +3.3740700e+00 1.77165500e+02 7.54677100e-03 1.17117000e-01
       21 -1    0    0  501  502 +0.0000000000e+00 +0.0000000000e+00 +8.5091041655e+02 8.5091041655e+02 0.0000000000e+00 0.0000e+00 -1.0000e+00
       21 -1    0    0  502  503 -0.0000000000e+00 -0.0000000000e+00 -3.6860688944e+01 3.6860688944e+01 0.0000000000e+00 0.0000e+00 -1.0000e+00
       -6  2    1    2    0  503 -2.7370523011e+01 +1.2148356295e+01 +4.5985151211e+02 4.9279918931e+02 1.7461643595e+02 0.0000e+00 0.0000e+00
      -24  2    3    3    0    0 -4.3764917212e+01 +7.1164018253e+01 +2.7328166918e+02 2.9637612343e+02 7.8589123661e+01 0.0000e+00 0.0000e+00
        6  2    1    2  501    0 +2.7370523011e+01 -1.2148356295e+01 +3.5419821549e+02 3.9497191618e+02 1.7219091330e+02 0.0000e+00 0.0000e+00
       24  2    5    5    0    0 -4.5099136236e+01 -6.5692535327e+00 +1.2896329026e+02 1.5825301232e+02 7.9595216527e+01 0.0000e+00 0.0000e+00
       14  1    6    6    0    0 -4.9817346213e+01 -3.4480914859e+01 +6.8232983545e+01 9.1249337075e+01 0.0000000000e+00 0.0000e+00 -1.0000e+00
      -13  1    6    6    0    0 +4.7182099765e+00 +2.7911661326e+01 +6.0730306711e+01 6.7003675247e+01 0.0000000000e+00 0.0000e+00 1.0000e+00
      -14  1    4    4    0    0 +8.9937375041e+00 +5.8233013557e+01 +1.6557013816e+02 1.7574254418e+02 0.0000000000e+00 0.0000e+00 1.0000e+00
       13  1    4    4    0    0 -5.2758654716e+01 +1.2931004696e+01 +1.0771153102e+02 1.2063357926e+02 0.0000000000e+00 0.0000e+00 -1.0000e+00
        5  1    5    5  501    0 +7.2469659247e+01 -5.5791027626e+00 +2.2523492523e+02 2.3671890386e+02 4.7000000000e+00 0.0000e+00 -1.0000e+00
       -5  1    3    3    0  503 +1.6394394201e+01 -5.9015661958e+01 +1.8656984293e+02 1.9642306588e+02 4.7000000000e+00 0.0000e+00 1.0000e+00
</event>
<event>
12      1 +3.3740700e+00 1.84952300e+02 7.54677100e-03 1.16309400e-01
        2 -1    0    0  502    0 +0.0000000000e+00 +0.0000000000e+00 +8.0098160353e+02 8.0098160353e+02 0.0000000000e+00 0.0000e+00 -1.0000e+00
       -2 -1    0    0    0  501 -0.0000000000e+00 -0.0000000000e+00 -2.8157637291e+02 2.8157637291e+02 0.0000000000e+00 0.0000e+00 1.0000e+00
        6  2    1    2  502    0 +4.7306728051e+01 -3.9949621461e+01 +7.5787247085e+02 7.7970927048e+02 1.7245859108e+02 0.0000e+00 0.0000e+00
       24  2    3    3    0    0 +1.8071693155e+01 -1.8138247424e+01 +7.2620183396e+02 7.3117533860e+02 8.1195381801e+01 0.0000e+00 0.0000e+00
       -6  2    1    2    0  501 -4.7306728051e+01 +3.9949621461e+01 -2.3846724023e+02 3.0284870596e+02 1.7611591428e+02 0.0000e+00 0.0000e+00
      -24  2    5    5    0    0 -7.9494575120e+01 -7.6294097944e+00 -2.0912879111e+02 2.3817524686e+02 8.1332659990e+01 0.0000e+00 0.0000e+00
       14  1    4    4    0    0 -6.2302886374e+00 +4.4235979173e+00 +6.1705519437e+02 6.1710250171e+02 0.0000000000e+00 0.0000e+00 -1.0000e+00
      -13  1    4    4    0    0 +2.4301981792e+01 -2.2561845342e+01 +1.0914663959e+02 1.1407283690e+02 0.0000000000e+00 0.0000e+00 1.0000e+00
      -14  1    6    6    0    0 -6.8190657650e+01 -3.7247079856e+01 -1.7565206243e+02 1.9207018973e+02 0.0000000000e+00 0.0000e+00 1.0000e+00
       13  1    6    6    0    0 -1.1303917470e+01 +2.9617670061e+01 -3.3476728681e+01 4.6105057132e+01 0.0000000000e+00 0.0000e+00 -1.0000e+00
        5  1    3    3  502    0 +2.9235034896e+01 -2.1811374037e+01 +3.1670636889e+01 4.8533931880e+01 4.7000000000e+00 0.0000e+00 -1.0000e+00
       -5  1    5    5    0  501 +3.2187847069e+01 +4.7579031255e+01 -2.9338449123e+01 6.4673459093e+01 4.7000000000e+00 0.0000e+00 1.0000e+00
</event>
<event>
12      1 +3.3740700e+00 1.95062100e+02 7.54677100e-03 1.15421400e-01
       21 -1    0    0  501  502 +0.0000000000e+00 +0.0000000000e+00 +1.0314831572e+02 1.0314831572e+02 0.0000000000e+00 0.0000e+00 -1.0000e+00
       21 -1    0    0  502  503 -0.0000000000e+00 -0.0000000000e+00 -5.9176794568e+02 5.9176794568e+02 0.0000000000e+00 0.0000e+00 -1.0000e+00
       -6  2    1    2    0  503 +5.1184698437e+01 +7.1124498235e+01 -4.5896986444e+02 4.9870088202e+02 1.7427181544e+02 0.0000e+00 0.0000e+00
      -24  2    3    3    0    0 +9.2284776124e+01 +6.5061914301e+01 -2.5253039179e+02 2.8807012173e+02 8.0394425555e+01 0.0000e+00 0.0000e+00
        6  2    1    2  501    0 -5.1184698437e+01 -7.1124498235e+01 -2.9649765519e+01 1.9621537939e+02 1.7303987665e+02 0.0000e+00 0.0000e+00
       24  2    5    5    0    0 -3.1924811918e+01 -7.9860007968e+00 +4.3222732976e+01 9.7778068756e+01 8.1298070450e+01 0.0000e+00 0.0000e+00
       14  1    6    6    0    0 -5.9590087602e+01 -5.2575269073e+00 +3.1496962020e+01 6.7606795118e+01 0.0000000000e+00 0.0000e+00 -1.0000e+00
      -13  1    6    6    0    0 +2.7665275684e+01 -2.7284738896e+00 +1.1725770956e+01 3.0171273638e+01 0.0000000000e+00 0.0000e+00 1.0000e+00
      -14  1    4    4    0    0 +2.9493500241e+01 +6.9632163528e+01 -1.4088273364e+02 1.5989511998e+02 0.0000000000e+00 0.0000e+00 1.0000e+00
       13  1    4    4    0    0 +6.2791275883e+01 -4.5702492264e+00 -1.1164765815e+02 1.2817500176e+02 0.0000000000e+00 0.0000e+00 -1.0000e+00
        5  1    5    5  501    0 -1.9259886519e+01 -6.3138497439e+01 -7.2872498495e+01 9.8437310632e+01 4.7000000000e+00 0.0000e+00 -1.0000e+00
       -5  1    3    3    0  503 -4.1100077687e+01 +6.0625839343e+00 -2.0643947265e+02 2.1063076028e+02 4.7000000000e+00 0.0000e+00 1.0000e+00
</event>
<event>
12      1 +3.3740700e+00 1.76914200e+02 7.54677100e-03 1.17126200e-01
       21 -1    0    0  501  502 +0.0000000000e+00 +0.0000000000e+00 +1.0825269586e+03 1.0825269586e+03 0.0000000000e+00 0.0000e+00 1.0000e+00
       21 -1    0    0  502  503 -0.0000000000e+00 -0.0000000000e+00 -7.8019501238e+01 7.8019501238e+01 0.0000000000e+00 0.0000e+00 1.0000e+00
       -6  2    1    2    0  503 -2.1834069097e+01 +3.0051908632e+00 +3.9620964516e+01 1.7957522543e+02 1.7375754088e+02 0.0000e+00 0.0000e+00
      -24  2    3    3    0    0 -1.9886160441e+01 +5.0493391386e+01 -2.4659128016e+01 9.9494367338e+01 7.9661876621e+01 0.0000e+00 0.0000e+00
        6  2    1    2  501    0 +2.1834069097e+01 -3.0051908632e+00 +9.6488649288e+02 9.8097123444e+02 1.7553592485e+02 0.0000e+00 0.0000e+00
       24  2    5    5    0    0 -1.7263092689e+01 -4.8540029191e+01 +7.8860018058e+02 7.9468928828e+02 8.3586310435e+01 0.0000e+00 0.0000e+00
       14  1    6    6    0    0 -4.5271323176e+01 -2.0366639493e+01 +5.9428651430e+02 5.9635623061e+02 0.0000000000e+00 0.0000e+00 -1.0000e+00
      -13  1    6    6    0    0 +2.8008230487e+01 -2.8173389698e+01 +1.9431366629e+02 1.9833305768e+02 0.0000000000e+00 0.0000e+00 1.0000e+00
      -12  1    4    4    0    0 +2.7442829701e+01 +1.2948093524e+01 -2.4629690452e+01 3.9081756353e+01 0.0000000000e+00 0.0000e+00 1.0000e+00
       11  1    4    4    0    0 -4.7328990142e+01 +3.7545297862e+01 -2.9437564514e-02 6.0412610985e+01 0.0000000000e+00 0.0000e+00 -1.0000e+00
        5  1    5    5  501    0 +3.9097161786e+01 +4.5534838327e+01 +1.7628631230e+02 1.8628194616e+02 4.7000000000e+00 0.0000e+00 -1.0000e+00
       -5  1    3    3    0  503 -1.9479086557e+00 -4.7488200523e+01 +6.4280092532e+01 8.0080858093e+01 4.7000000000e+00 0.0000e+00 1.0000e+00
</event>
<event>
12      1 +3.3740700e+00 2.36969200e+02 7.54677100e-03 1.12182800e-01
        2 -1    0    0  502    0 +0.0000000000e+00 +0.0000000000e+00 +6.9676100851e+02 6.9676100851e+02 0.0000000000e+00 0.0000e+00 1.0000e+00
       -2 -1    0    0    0  501 -0.0000000000e+00 -0.0000000000e+00 -8.5833352473e+01 8.5833352473e+01 0.0000000000e+00 0.0000e+00 -1.0000e+00
        6  2    1    2  502    0 +9.2390168179e+00 -1.6031547410e+02 +4.0278104725e+02 4.6758790915e+02 1.7498419956e+02 0.0000e+00 0.0000e+00
       24  2    3    3    0    0 +3.1379302000e+01 -1.3937311330e+01 +1.2701355618e+02 1.5455986265e+02 8.1101161827e+01 0.0000e+00 0.0000e+00
       -6  2    1    2    0  501 -9.2390168179e+00 +1.6031547410e+02 +2.0814660879e+02 3.1500645183e+02 1.7354435536e+02 0.0000e+00 0.0000e+00
      -24  2    5    5    0    0 +3.9993943907e+00 +3.6508763401e+01 +2.2068706987e+01 9.1063529004e+01 8.0353304388e+01 0.0000e+00 0.0000e+00
       12  1    4    4    0    0 -1.1119773093e+01 +2.6905038103e+01 +4.3323484838e+01 5.2196309903e+01 0.0000000000e+00 0.0000e+00 -1.0000e+00
      -11  1    4    4    0    0 +4.2499075093e+01 -4.0842349433e+01 +8.3690071338e+01 1.0236355275e+02 0.0000000000e+00 0.0000e+00 1.0000e+00
      -14  1    6    6    0    0 +2.3220983975e-01 +6.1763114731e+01 +2.1893676485e+01 6.5529148725e+01 0.0000000000e+00 0.0000e+00 1.0000e+00
       13  1    6    6    0    0 +3.7671845510e+00 -2.5254351330e+01 +1.7503050212e-01 2.5534380279e+01 0.0000000000e+00 0.0000e+00 -1.0000e+00
        5  1    3    3  502    0 -2.2140285182e+01 -1.4637816277e+02 +2.7576749107e+02 3.1302804650e+02 4.7000000000e+00 0.0000e+00 -1.0000e+00
       -5  1    5    5    0  501 -1.3238411209e+01 +1.2380671070e+02 +1.8607790180e+02 2.2394292282e+02 4.7000000000e+00 0.0000e+00 1.0000e+00
</event>
<event>
12      1 +3.3740700e+00 2.42853300e+02 7.54677100e-03 1.11792100e-01
       21 -1    0    0  501  502 +0.0000000000e+00 +0.0000000000e+00 +4.8525634774e+02 4.8525634774e+02 0.0000000000e+00 0.0000e+00 -1.0000e+00
       21 -1    0    0  502  503 -0.0000000000e+00 -0.0000000000e+00 -1.2621072284e+02 1.2621072284e+02 0.0000000000e+00 0.0000e+00 1.0000e+00
       -6  2    1    2    0  503 -1.6580975249e+02 -3.9854010827e+01 +1.2044922277e+02 2.7108253031e+02 1.7290606344e+02 0.0000e+00 0.0000e+00
      -24  2    3    3    0    0 -4.6877926459e+01 -7.7613238697e+01 +8.7416941992e+01 1.4191689980e+02 6.5401298845e+01 0.0000e+00 0.0000e+00
        6  2    1    2  501    0 +1.6580975249e+02 +3.9854010827e+01 +2.3859640213e+02 3.4038454026e+02 1.7277782247e+02 0.0000e+00 0.0000e+00
       24  2    5    5    0    0 +7.2263362418e+01 -4.2056483842e+01 +1.3374445796e+02 1.7766921699e+02 8.1780372020e+01 0.0000e+00 0.0000e+00
       12  1    6    6    0    0 -1.0986023366e+01 -2.1794141257e+01 +5.9447477810e+01 6.4262585698e+01 0.0000000000e+00 0.0000e+00 -1.0000e+00
      -11  1    6    6    0    0 +8.3249385784e+01 -2.0262342585e+01 +7.4296980150e+01 1.1340663129e+02 0.0000000000e+00 0.0000e+00 1.0000e+00
      -12  1    4    4    0    0 +1.2428983083e+01 -3.7965481770e+00 -7.2253131728e-02 1.2996100148e+01 0.0000000000e+00 0.0000e+00 1.0000e+00
       11  1    4    4    0    0 -5.9306909542e+01 -7.3816690520e+01 +8.7489195124e+01 1.2892079965e+02 0.0000000000e+00 0.0000e+00 -1.0000e+00
        5  1    5    5  501    0 +9.3546390076e+01 +8.1910494669e+01 +1.0485194417e+02 1.6271532328e+02 4.7000000000e+00 0.0000e+00 -1.0000e+00
       -5  1    3    3    0  503 -1.1893182603e+02 +3.7759227870e+01 +3.3032280780e+01 1.2916563052e+02 4.7000000000e+00 0.0000e+00 1.0000e+00
</event>
</LesHouchesEvents>
